default_name
130489
  93.5669913  57.2378700  61.4790247  92.5960081  57.4957563  61.3751625
  94.1379214  58.0586947  61.3362452  93.6694229  56.6919691  62.3225882
  93.9149010  56.3312412  60.3880104  94.7138401  56.7824522  59.7996194
  94.3890472  54.9574123  60.8881458  95.1379406  55.1222213  61.6628045
  93.5319824  54.4379273  61.3167194  94.9966725  54.1015049  59.7608801
  95.5890132  54.7049088  58.8410725  94.8909682  52.8431173  59.7770117
  92.6901155  56.1630268  59.4548102  91.5127931  56.3487769  59.8623675
  92.9915684  55.7915327  58.1969949  93.9601094  55.6065818  57.9783151
  92.0101898  55.6615791  57.1366601  91.0118607  55.9278499  57.4838461
  92.3714581  56.5632943  55.9292678  91.7349967  56.2962308  55.0856481
  92.1636211  58.0388492  56.2775758  92.8001419  58.3067892  57.1208723
  92.4226158  58.6557912  55.4171088  91.1198551  58.2064774  56.5431959
  93.7353974  56.3373995  55.5154249  93.9408992  56.9035436  54.7678621
  91.8759998  54.2469238  56.6221299  91.0338249  54.0155963  55.7387687
  92.7021250  53.3126981  57.0820926  93.5255061  53.5112518  57.6322918
  92.4264394  51.9278346  56.7273762  92.2132670  51.8584634  55.6606784
  93.6250309  51.0373873  57.0441666  94.5171043  51.4823908  56.6033989
  93.7435592  50.9829636  58.1263353  93.4415072  49.7300696  56.5222322
  94.2068266  49.1906090  56.7340538  91.1923431  51.4122308  57.4608590
  90.4564678  50.5642508  56.9361912  90.9333392  51.9250295  58.6534585
  91.3956962  52.7634655  58.9749401  89.9990595  51.2687666  59.5481927
  90.2404691  50.2098692  59.6406967  90.0903475  51.9137299  60.9324484
  90.2041542  52.9742042  60.7076342  89.1690624  51.7587227  61.4939701
  91.2770328  51.4407690  61.7634599  92.1585657  52.0515312  61.5686008
  90.8696544  51.5906363  63.2172200  89.9883986  50.9797601  63.4129684
  91.6874023  51.2642180  63.8597465  90.6400688  52.6357551  63.4248675
  91.7134358  50.0411684  61.4022886  92.0053418  50.0105523  60.3525491
  92.5615808  49.7528544  62.0232769  90.8888748  49.3482815  61.5699366
  88.5434400  51.3141179  59.0965498  87.7793092  50.3683113  59.3696066
  88.0950925  52.4108780  58.4712612  88.6071050  53.7666672  58.3615583
  89.2731586  53.8149456  57.5000816  89.1679389  53.9977871  59.2671785
  87.3854298  54.6427592  58.2007522  87.6377251  55.5690201  57.6845286
  86.9457081  54.8760163  59.1704621  86.4364623  53.7753747  57.3635300
  86.6857920  53.8108650  56.3030235  85.3801219  54.0092951  57.4959148
  86.7347210  52.3922250  57.9183252  86.0223016  52.2065052  58.7221068
  86.6148246  51.2982438  56.8746667  85.6559091  50.5103623  56.8801368
  87.6381762  51.1824768  56.0288112  88.3656618  51.8830932  56.0297190
  87.7077477  50.1142700  55.0372069  86.8273926  50.0695025  54.3960595
  88.9410100  50.3949429  54.1603200  89.7344310  50.8034005  54.7862160
  89.4202441  49.1350190  53.5057396  88.6274656  48.7261962  52.8792688
  90.2926766  49.3539650  52.8900908  89.6896729  48.4071393  54.2710498
  88.5884811  51.3813395  53.1737162  89.3501648  51.5657848  52.6192632
  87.7549586  48.7279544  55.6634864  87.5468780  47.7268011  54.9699529
  88.0148497  48.6325079  56.9419052  88.2405990  49.4459401  57.4964002
  88.0812519  47.3258094  57.5761723  88.4057993  46.5692516  56.8617575
  89.0962538  47.3817344  58.7264806  88.8110719  48.1801274  59.4115639
  89.0847830  46.4286229  59.2552026  90.4045491  47.6307710  58.2270287
  91.0255887  47.6625292  58.9583981  86.7230463  46.8162117  58.0597214
  86.5948910  45.6034540  58.3064520  85.7244264  47.6921763  58.1529867
  85.9022448  48.6678252  57.9617039  84.4012105  47.3134435  58.6842863
  83.8614321  48.2096280  58.9902142  83.5705119  46.5788215  57.6231052
  83.9491241  45.5651856  57.4915979  82.5204025  46.5391768  57.9125852
  83.6190860  47.2287880  56.2841989  84.4926583  46.8241785  55.2991631
  84.3172892  47.5599349  54.2258420  84.9184364  47.3974729  53.3312320
  83.3472964  48.4360732  54.4792025  82.9890026  49.1329344  53.8419349
  82.9052246  48.2417390  55.7570858  82.1073906  48.8664522  56.1587021
  84.6974583  46.5634195  59.9752097  84.2856034  45.4037332  60.0996458
  85.4587300  47.1966676  60.8678166  85.8099254  48.1123131  60.6262500
  85.8645913  46.6084662  62.1664416  86.2292392  45.5876371  62.0522528
  86.9700324  47.4544324  62.8043970  86.6009094  48.4764353  62.8901790
  87.3777379  46.9499168  64.1700987  87.7474299  45.9280590  64.0850457
  88.1640152  47.5877872  64.5738170  86.5161155  46.9696606  64.8374199
  88.0797346  47.4417045  61.9039748  88.7961499  47.9643547  62.2716517
  84.6409601  46.5115401  63.0638311  84.5747796  45.5592124  63.8477585
  83.7491705  47.4917727  63.0006373  83.9264324  48.2726997  62.3851452
  82.4989583  47.4938830  63.7960109  82.7436331  47.6895009  64.8400258
  81.5110332  48.5612600  63.3166455  80.6151143  48.4660482  63.9301302
  81.9885104  49.5201739  63.5181388  81.1325905  48.4853179  61.8607794
  81.8728165  49.1294173  60.8902484  82.7506292  49.6975554  61.1980849
  81.5242277  49.0664691  59.5553861  82.1119304  49.6047373  58.8117634
  80.4326932  48.3224065  59.1639165  80.1064991  48.2515147  57.8464144
  80.7011097  48.7545545  57.2851757  79.6879258  47.6609680  60.1168769
  78.8240493  47.0667517  59.8190095  80.0371530  47.7516730  61.4499647
  79.4429867  47.2372425  62.2052313  81.8274396  46.1315607  63.6751404
  81.1783820  45.7171100  64.6527313  81.9332949  45.4831637  62.5211101
  82.4556521  45.9003886  61.7640331  81.2582445  44.1882260  62.2780274
  80.2131219  44.2267020  62.5851717  81.3160776  43.9047135  60.7787795
  80.8251097  44.7787263  60.3508177  82.3640604  43.8942647  60.4792418
  80.6314217  42.6402100  60.2745752  79.9466772  42.2639745  61.0346230
  79.8495825  42.9716997  59.0043878  80.5337716  43.3475863  58.2436688
  79.3558990  42.0724771  58.6359097  79.1005278  43.7318546  59.2261581
  81.6475598  41.5221347  60.0387107  82.1594528  41.2925894  60.9732554
  81.1318535  40.6316474  59.6792938  82.3767275  41.8440475  59.2952152
  82.0106766  43.1919368  63.1489480  81.4075673  42.6949049  64.0990051
  83.3154398  43.0109553  62.9108520  83.7388003  43.5198014  62.1480015
  84.1668397  42.1063063  63.7055988  84.6526098  42.6744621  64.4988993
  83.5478225  41.3246426  64.1459612  85.2285289  41.4640102  62.8387119
  84.9068312  41.1506492  61.6760015  86.4436126  41.2584426  63.3587308
  86.6548041  41.6213470  64.2773155  87.5154279  40.5548444  62.6185858
  87.7175504  41.0108023  61.6493861  88.7937735  40.5354762  63.4179426
  88.6094739  40.0734258  64.3878101  89.5499837  39.9627730  62.8810464
  89.1472921  41.5562081  63.5636483  86.9888051  39.1459203  62.3365372
  87.2067374  38.6586472  61.2122866  86.3270615  38.5215196  63.3171427
  86.3040647  38.9391969  64.2364447  85.6719343  37.2038646  63.1265575
  85.3186788  36.8347087  64.0893834  84.4839106  37.3024608  62.1771812
  84.8519786  37.6529976  61.2129462  84.0701226  36.3003105  62.0650457
  83.4057534  38.2401497  62.6764624  82.9799176  38.1958768  63.8493029
  82.9284384  39.0885537  61.8989794  86.7037908  36.1951184  62.6031081
  87.7566212  36.0694913  63.2568595  86.4269332  35.5002088  61.4933889
  85.5187141  35.6336135  61.0721519  87.3123821  34.4435531  60.9387864
  88.3454422  34.7875334  60.9894200  87.1972813  33.1166657  61.7109739
  87.9580883  32.4579029  61.2922814  87.4477564  33.3482903  62.7462093
  85.8480290  32.4265632  61.6600038  85.1005771  33.1114752  62.0603935
  85.6176149  32.2071612  60.6174712  85.8166737  30.9046922  62.6025618
  86.8054876  29.8180003  61.5527800  87.8059962  30.2349436  61.4377157
  86.8739829  28.8319197  62.0121862  86.3342097  29.7302438  60.5738534
  87.0431798  34.3130319  59.4411031  86.0361509  34.8857770  59.0216821
  87.9283745  33.6771849  58.6690747  88.8257279  33.4764765  59.0868932
  87.7371692  33.3696151  57.2178696  88.4750482  32.6298751  56.9073560
  86.3313016  32.8098629  56.9369680  85.6209629  33.5445203  57.3161735
  86.2346068  32.7372140  55.8536988  86.0397551  31.4462995  57.5673429
  86.3243539  31.4962098  58.6183488  84.9649480  31.2823143  57.4898987
  86.7781048  30.2959593  56.8959241  86.7434004  29.1527464  57.4187823
  87.3907606  30.5285961  55.8322136  88.0532486  34.5532811  56.2895466
  87.3068562  35.5502488  56.3341750  89.1161530  34.4413730  55.4844672
  89.6981465  33.6350251  55.6610628  89.5582204  35.4181450  54.4522890
  88.7108748  36.0621242  54.2169265  90.7430614  36.3015498  54.8811032
  90.4446888  36.7968430  55.8050933  91.5768000  35.6290273  55.0828294
  91.1726282  37.3525033  53.8551587  91.5340072  36.8268596  52.9713008
  90.2843585  37.9288996  53.5966176  92.2570958  38.2929015  54.3650527
  92.0211599  39.5257116  54.4311633  93.3501786  37.7988589  54.7109166
  89.8448367  34.5613379  53.2191342  90.5617180  33.5640677  53.4110518
  89.3008050  34.9110446  52.0489506  88.7363438  35.7479675  52.0166574
  89.4465082  34.1125812  50.8070497  89.9530818  33.1729958  51.0276435
  88.0744223  33.7996732  50.2134969  87.5072650  34.7129099  50.0334122
  88.2216096  33.2721981  49.2710501  87.2102071  32.9189621  51.0680816
  86.3556456  33.4604614  52.0219921  86.3262059  34.5418521  52.1555112
  85.5426606  32.6389261  52.8028904  84.8860271  33.0819425  53.5516692
  85.5677211  31.2613084  52.6291306  84.9308935  30.6180217  53.2363644
  86.4147483  30.7009641  51.6702104  86.4484164  29.6211188  51.5256392
  87.2223978  31.5351102  50.8936130  87.8775519  31.1070542  50.1349028
  90.3036812  34.8942040  49.8217978  89.7765589  35.8657729  49.2335861
  91.5642713  34.4916167  49.6415864  91.9010419  33.7239453  50.2049383
  92.5159781  35.1576415  48.7198521  92.2107146  36.1963241  48.5931558
  93.9551533  35.1307878  49.2368282  94.2393070  34.1048490  49.4709338
  94.6277157  35.5292002  48.4772049  94.1875659  35.9320637  50.4761693
  94.2194080  37.3119521  50.4574039  94.4356640  37.7581506  51.6820113
  94.4953690  38.8283107  51.8802330  94.5456727  36.7177399  52.4921826
  94.7129849  36.7527008  53.4876143  94.3947486  35.5658089  51.7582855
  94.4544409  34.5947289  52.2497542  92.4371524  34.5184015  47.3298575
  93.4067876  34.7332648  46.5730198  91.3598017  33.7838023  46.9714828
  90.6158508  33.5988977  47.6290896  91.2450436  33.2473877  45.6469542
  92.1932270  32.7887083  45.3664891  90.4594928  32.4918026  45.6369430
  90.9083464  34.3109722  44.6561802  90.4817309  35.3964663  45.0374357
  91.1195546  33.9882682  43.3902757  91.5557663  33.1241983  43.1018280
  90.7549978  34.9305423  42.3837337  90.1438947  35.7212668  42.8189428
  92.0368794  35.5765443  41.7561655  92.6254332  36.0596335  42.5361196
  92.6380517  34.8067916  41.2722515  91.6131451  36.6155764  40.7219666
  91.0087485  36.1051549  39.9721162  91.0032687  37.3594883  41.2345560
  92.7793110  37.2987906  40.0482016  93.4069553  37.8296064  40.7640202
  93.3897545  36.5950302  39.4823575  92.1981406  38.2778392  39.1129210
  91.1908118  38.3024977  39.0437827  92.8961206  39.1279793  38.3965798
  92.2466356  39.9691342  37.5739422  91.2387273  39.9374036  37.5172488
  92.7693856  40.6291960  37.0161337  94.2028931  39.2089999  38.4755450
  94.7062585  38.6016300  39.1062787  94.6996750  39.8783801  37.9052498
  89.9447912  34.1867196  41.3770451  90.4031844  33.1966022  40.8101921
  88.7356751  34.6731637  41.1478368  88.4638248  35.5161531  41.6331879
  87.7643054  34.0413219  40.2625020  88.1924147  33.2263166  39.6789028
  86.5780346  33.4921111  41.0792211  86.2201699  34.2699287  41.7537823
  85.4368777  33.0614950  40.1426076  85.7938807  32.2833135  39.4680099
  84.6065160  32.6759347  40.7341665  85.1002441  33.9195860  39.5608360
  87.0304910  32.4092781  41.9052337  86.2929837  32.0657556  42.4148175
  87.2992253  35.0790325  39.2485462  86.5414721  35.9894108  39.6134233
  87.7213727  34.9241425  37.9785023  88.2327202  34.0886271  37.7324594
  87.5105383  35.9414781  36.9418741  86.6835597  36.5964338  37.2161706
  88.7815686  36.7909799  36.7953215  89.5362556  36.1216666  37.2083185
  88.9519124  36.9139383  35.7257589  88.8745841  38.1432932  37.4813280
  89.8400680  38.6093203  37.2844513  87.7426712  39.0306596  36.8952024
  86.7767855  38.5654800  37.0921073  87.7732503  40.0150293  37.3623020
  87.8824574  39.1351191  35.8192617  88.7979785  38.1213543  38.9972812
  89.6170417  37.5217086  39.3943455  88.8745275  39.1389949  39.3802292
  87.8472834  37.6875836  39.3073146  87.1408616  35.3282121  35.5931718
  87.9055814  34.5544993  35.0101296  85.9937554  35.7347945  35.0702990
  85.4504228  36.4279190  35.5647355  85.4419724  35.1689815  33.8455099
  85.7410389  34.1228588  33.7800446  83.9149387  35.2452429  33.7907996
  83.6000001  35.5231287  32.7849704  83.4874137  34.2767390  34.0502655
  83.3068183  36.2432583  34.7197926  82.4881693  35.8665062  35.7645144
  82.0969023  36.9411505  36.4232546  81.4412145  36.8545597  37.2896693
  82.6318408  38.0036852  35.8412116  82.5084186  38.9645649  36.1268284
  83.3909070  37.5905296  34.7742899  83.9160661  38.3240371  34.1625089
  86.0577096  35.8738136  32.6373276  87.0284215  36.6208510  32.7613704
  85.4900894  35.6784985  31.4507159  84.6040200  35.1955793  31.4086506
  86.1157949  36.0884990  30.1956294  86.9946957  36.6981448  30.4053065
  86.5525657  34.8612793  29.3796881  86.5934117  34.0134131  30.0634671
  85.7930529  34.6781452  28.6196210  87.9011494  35.0373190  28.7131815
  87.9863028  35.7775549  27.7106699  88.8766255  34.4240359  29.1972097
  85.1785148  36.9542109  29.3543369  84.0183929  37.1496601  29.6662068
  85.6818666  37.4091690  28.2225321  86.5365363  37.0090183  27.8626455
  85.0682972  38.5090129  27.4846060  84.6412043  39.2410602  28.1700239
  86.1412404  39.1951350  26.6452781  86.9402500  38.4726346  26.4789172
  85.7018914  39.4769533  25.6883816  86.7050342  40.4216788  27.3203403
  86.5199735  40.5849761  28.5485245  87.3249291  41.2212494  26.6014640
  83.9324758  38.0180989  26.5991167  84.1243957  37.1430448  25.7446869
  82.7621625  38.6267028  26.7748237  82.7253830  39.4098811  27.4115169
  81.5181035  38.1818451  26.1515317  80.7148573  38.8765253  26.3971212
  81.6662719  38.1248615  24.6356039  82.5024739  37.4653890  24.4033081
  80.7466278  37.7002346  24.2330536  81.9082111  39.4835747  24.0146419
  81.1893654  40.4700240  24.2765801  82.8575390  39.6298621  23.2209401
  81.0575711  36.8284724  26.6793350  80.2844770  36.1465863  25.9988449
  81.5323664  36.4285127  27.8754018  82.1644082  37.0264542  28.3883233
  81.1693239  35.1451339  28.4595840  81.0684170  34.4091619  27.6619236
  82.2183775  34.6455127  29.4563445  83.1639140  34.5026112  28.9332393
  82.3464140  35.3925442  30.2397030  81.8099091  33.4197229  30.0357321
  82.4779872  33.1211783  30.6571359  79.8524259  35.2456584  29.1896459
  79.6492811  36.1403642  30.0143803  78.9851317  34.2699253  28.9439642
  79.2489521  33.5507080  28.2857661  77.6373475  34.2329535  29.5071195
  77.3476957  35.2342143  29.8259891  76.5900327  33.6886516  28.4929355
  76.8937895  32.6913577  28.1747578  75.2114078  33.6196704  29.1258707
  74.9067516  34.6167358  29.4439051  74.4958321  33.2364236  28.3984273
  75.2406631  32.9562685  29.9902441  76.5416080  34.5754422  27.2428241
  76.1334426  35.5373690  27.5529831  77.5707758  34.7085397  26.9093601
  75.7002995  34.0108025  26.0911418  74.6708293  33.8778598  26.4237333
  75.7232354  34.7037205  25.2500486  76.1081614  33.0490288  25.7801117
  77.7010824  33.4077581  30.7811604  78.0657274  32.2310181  30.7305451
  77.4139836  34.0385068  31.9134569  77.2334647  35.0322208  31.9067684
  77.4374720  33.3536502  33.1890018  77.7515109  32.3190290  33.0510244
  78.4223190  34.0412437  34.1363778  78.1252012  35.0862390  34.2247241
  78.3412036  33.5574494  35.1097551  79.8534779  33.9634643  33.6527325
  79.8556279  34.2964535  32.6148431  80.5085290  34.6058714  34.2412248
  80.3869552  32.5488936  33.7076928  81.2401570  32.2090738  34.5723374
  79.9359626  31.7124416  32.7439590  80.2527462  30.7536356  32.7229682
  79.2846645  32.0508281  32.0501242  76.0429337  33.2589242  33.8209503
  75.0376623  33.8002472  33.2961179  75.9808395  32.4606975  34.9035266
  76.7900133  31.9083140  35.1489030  74.7798436  32.3332723  35.7259065
  74.0687362  33.1337524  35.5218052  74.0540834  30.9905801  35.6017902
  73.3499576  30.8697462  36.4250188  73.2909455  30.9718746  34.2688368
  73.9945096  31.0922021  33.4450530  72.7671281  30.0218929  34.1627685
  72.5689005  31.7882392  34.2514705  75.0454189  29.8619897  35.7605588
  75.5185218  29.9283996  36.7402861  74.5270735  28.9072321  35.6719270
  75.8070367  29.9347827  34.9841953  75.1748515  32.5359362  37.1716146
  75.9634450  31.7548123  37.7508552  74.5858923  33.5607844  37.7664552
  73.7599575  33.9416278  37.3272636  75.0773928  34.1963332  38.9800671
  75.7162427  33.5253507  39.5543078  75.8526513  35.4814321  38.6471616
  75.1574863  36.2665951  38.3498989  76.6292324  35.9307373  39.9004770
  77.3249792  35.1462226  40.1980903  77.1839184  36.8421699  39.6775088
  75.9287594  36.1220070  40.7134055  76.7764850  35.2386797  37.4393836
  76.2405147  34.5620315  36.7738133  76.9025893  36.2045023  36.9501148
  78.1770829  34.6383091  37.7728438  78.0517918  33.6721968  38.2617498
  78.7456633  34.5079528  36.8520710  78.7138657  35.3146670  38.4380536
  73.7918569  34.4185406  39.7549589  72.8131963  34.9620610  39.1946154
  73.7276376  33.9955846  41.0093995  74.5698580  33.1127186  41.7679490
  75.5919738  33.4827613  41.6876502  74.5051489  32.1241196  41.3134342
  74.0568317  33.1280074  43.1901952  74.5227331  33.9306973  43.7617929
  74.2488247  32.1740947  43.6814087  72.5504806  33.3628569  43.0200247
  72.1232706  33.8797202  43.8793518  71.9746562  32.4600059  42.8165895
  72.5295829  34.2759114  41.8051763  71.6433315  34.0201082  41.2244685
  72.4859266  35.7443667  42.1708129  73.5158407  36.3791846  42.4001975
  71.2678459  36.2752886  42.2097508  70.5009156  35.7326731  41.8389601
  70.9878382  37.6083268  42.7136524  71.8613339  38.2575568  42.7736934
  69.9207020  38.3001424  41.8544867  68.9884117  37.7441471  41.9534990
  69.6993337  39.7341831  42.2789030  70.6311384  40.2909628  42.1797196
  68.9366742  40.1874536  41.6456599  69.3703590  39.7595259  43.3177654
  70.3414940  38.1407311  40.3948967  70.4039011  37.0809227  40.1478877
  69.6058931  38.6209605  39.7496288  71.3154133  38.6063838  40.2440670
  70.5378130  37.4649557  44.1603092  69.6991922  36.5777608  44.4915892
  71.1245930  38.3184628  45.0339269  71.8882287  38.9020918  44.7235449
  70.6569196  38.4560525  46.4447014  70.3861763  37.4779525  46.8423416
  71.7482988  39.0399176  47.3040756  72.0332863  39.9855455  46.8429148
  71.3175583  39.2308650  48.2869803  72.9875811  38.1510376  47.4537707
  73.3430068  37.8809404  46.4593760  74.0753651  38.8558283  48.1966199
  73.7208141  39.1258506  49.1913462  74.9401706  38.1983598  48.2857685
  74.3599070  39.7582359  47.6555128  72.5871778  36.8597301  48.2301568
  71.8148067  36.3266218  47.6757764  73.4607718  36.2178220  48.3436856
  72.2056131  37.1306412  49.2145930  69.4831688  39.3956490  46.4931210
  69.6209941  40.5846189  46.1516612  68.3431738  38.9730774  46.9980147
  68.1348278  37.7863406  47.6888381  68.9027161  37.6975715  48.4573221
  68.2281968  36.9589908  46.9853656  66.7429008  37.8955306  48.2687914
  66.7684369  38.3644897  49.2524195  66.2779260  36.9128146  48.3473347
  66.0029579  38.7715876  47.2494987  65.1465320  39.3508072  47.5946631
  65.6989313  38.1339848  46.4193601  67.1147126  39.7083163  46.8039767
  67.0237552  39.8244507  45.7240055  66.9752759  41.0724980  47.4753503
  66.0332344  41.8259387  47.1449839  67.7689383  41.3816610  48.4632446
  68.5424172  40.8035903  48.7593256  67.4886020  42.5966818  49.2139676
  66.4972902  42.9691569  48.9557769  67.5307905  42.3193924  50.7243469
  68.5239396  41.9377263  50.9611698  67.3748825  43.2682974  51.2375448
  66.4683026  41.3058554  51.1864902  65.4745332  41.6805487  50.9412800
  66.6431515  40.3685207  50.6583487  66.5323681  41.0380750  52.6928724
  65.6934969  41.5382915  53.4513179  67.5063466  40.2386815  53.1324970
  67.5831811  40.0369575  54.1191607  68.1621866  39.8390600  52.4765413
  68.4709987  43.7064935  48.8612345  68.2901181  44.8605079  49.2936497
  69.5719608  43.3805560  48.1640765  69.7504918  42.4132990  47.9346424
  70.6083471  44.3966241  47.8065196  70.8042573  45.1063950  48.6102258
  71.9507848  43.7721922  47.3606317  72.6797292  44.5752382  47.2517443
  72.4682294  42.7499916  48.3638455  71.7399775  41.9463426  48.4729257
  73.4128867  42.3378939  48.0090234  72.6227173  43.2330450  49.3286742
  71.9155035  43.1657297  45.9597047  71.6631443  43.9394012  45.2345500
  72.8932057  42.7481272  45.7192755  71.1649362  42.3761330  45.9238378
  69.9801876  45.2977477  46.7394030  69.4167199  44.7264328  45.7878230
  69.9764063  46.6249137  46.9296192  70.2976632  46.9871705  47.8159957
  69.4414222  47.5569969  45.9610208  69.2810958  47.0419458  45.0138582
  68.1209943  48.1386724  46.4256560  67.7385674  48.7687068  45.6225958
  67.4359588  47.3073368  46.5921113  68.2374965  48.9382148  47.6671862
  68.9382937  48.4134007  48.3164584  68.6583767  49.9028398  47.3835307
  66.7259503  49.1984399  48.5361683  66.9606029  47.9341817  49.7206713
  67.8692910  48.1322831  50.2891260  66.1072710  47.9075563  50.3983265
  67.0517543  46.9733521  49.2141153  70.4462612  48.6538578  45.6420163
  70.0619979  49.7026736  45.1368300  71.7429675  48.3464596  45.8141239
  71.9849802  47.4012251  46.0750087  72.8407673  49.3319863  45.6399779
  72.4427989  50.3461175  45.6045036  73.8007559  49.2237011  46.8308147
  73.2193381  49.4390816  47.7272876  74.1496166  48.1915669  46.8639085
  74.9984888  50.1622103  46.7652816  75.4985278  50.0074957  45.8091826
  74.6299863  51.1865479  46.8204236  76.1814900  49.8818106  48.1082760
  77.5024546  49.0566762  47.2202610  77.8788385  49.7130499  46.4356541
  78.3106568  48.8164962  47.9110746  77.1221106  48.1381136  46.7734027
  73.6354365  49.0882784  44.3521898  74.1140506  47.9554925  44.1848050
  73.7852039  50.0999265  43.4898832  73.2392667  50.9370268  43.6358801
  74.6635497  50.0406940  42.3248754  74.4316222  49.1706082  41.7106609
  74.5141156  51.3191071  41.4803451  74.5405915  52.1733009  42.1569191
  75.6333165  51.4653797  40.4212452  75.6071760  50.6117243  39.7439788
  75.4797384  52.3833892  39.8539948  76.6023245  51.5041793  40.9188568
  73.1671883  51.3674550  40.7613484  73.2413074  50.6841312  39.9153722
  72.4246311  50.9931860  41.4660689  72.7445840  52.7532643  40.2625898
  73.4864736  53.1280133  39.5574211  71.7764265  52.6819341  39.7669263
  72.6697995  53.4370690  41.1081182  76.0956162  49.8628718  42.7990504
  76.6084579  50.6399523  43.6120535  76.7767126  48.8909102  42.2176156
  76.2788085  48.4100553  41.4821094  78.1364615  48.4738313  42.5158689
  78.5564624  49.1168769  43.2892968  78.1622209  47.0253616  43.0159789
  77.4184379  46.9950735  43.8122004  77.8637126  46.3493443  42.2147341
  79.5110421  46.5933238  43.5665848  80.2908738  46.8430736  42.8471487
  79.7863719  47.3109387  44.8838230  79.0071548  47.0612951  45.6039602
  80.7547005  46.9971268  45.2736468  79.7943212  48.3880134  44.7166481
  79.5550172  45.0723161  43.7348931  79.3965656  44.5945300  42.7680876
  80.5272662  44.7779332  44.1300791  78.7725738  44.7600044  44.4265163
  79.0009340  48.5474484  41.2582354  78.5124209  48.4799278  40.1396283
  80.3102864  48.5951785  41.4547552  80.6473044  48.2847799  42.3548502
  81.2901066  49.0524437  40.4662073  81.0206596  48.8475729  39.4300966
  81.5675004  50.5715402  40.6152259  81.6753844  50.7917919  41.6772755
  82.8185624  51.0047605  39.8806852  82.7112326  50.7852368  38.8184279
  82.9677443  52.0759227  40.0165407  83.6786553  50.4654464  40.2775254
  80.3345953  51.3484200  40.2019681  79.4963868  51.0665820  40.8392089
  80.5259192  52.4164989  40.3054196  80.0930106  51.1220181  39.1634692
  82.5523636  48.2499099  40.7541721  82.9650916  48.1201152  41.9425239
  83.2567169  47.6981348  39.7342621  83.0743546  47.8732895  38.3222586
  83.3515590  48.8941645  38.0594426  82.0233302  47.7099604  38.0839934
  83.9777967  46.8428298  37.6817781  84.2663524  47.1514795  36.6770045
  83.4852922  45.8715394  37.6355651  85.1874983  46.7988837  38.6231276
  85.9120359  47.5956839  38.4550389  85.6947092  45.8346135  38.5911963
  84.5160612  46.9874041  39.9745018  84.2705942  45.9952804  40.3533617
  85.4292351  47.7083009  40.9808427  85.7373983  48.8610228  40.7321467
  85.8389312  47.0414279  42.0680178  85.5225973  46.0884445  42.1768985
  86.7199748  47.6116147  43.1111305  87.3152513  46.8002074  43.5298946
  87.3795579  48.3373434  42.6353499  85.9569514  48.2983589  44.2363410
  86.6346825  48.8078542  45.1496170  84.6181137  48.3026190  44.2067722
  84.1628478  47.9050151  43.3976100  83.7687372  48.9339976  45.2565254
  84.3447775  49.6920291  45.7872467  82.5378573  49.6020938  44.6318366
  82.8966073  50.2974595  43.8729794  81.9496908  48.8174503  44.1559221
  81.6687908  50.3499632  45.6352951  81.2636010  49.6324583  46.3488137
  82.2994973  51.0672369  46.1604901  80.5211843  51.0944747  44.9949460
  80.3666729  51.1194316  43.7760952  79.6912949  51.7092660  45.8226877
  78.9043507  52.2239651  45.4540347  79.8487908  51.6608666  46.8191584
  83.4026689  47.8554481  46.2794032  82.8756700  46.8367787  45.8716917
  83.6405666  48.0713761  47.5717607  83.9974409  48.9745511  47.8492761
  83.4243022  47.0573947  48.6137106  83.7211842  46.0810592  48.2306581
  84.2481027  47.3612328  49.8757241  83.9917275  48.3653241  50.2136187
  83.9734023  46.3500587  51.0115642  84.2299951  45.3457281  50.6745480
  84.5783608  46.6065511  51.8812399  82.9178144  46.3836515  51.2812052
  85.6501913  47.3066709  49.5774133  86.1540461  47.4977883  50.3718973
  81.9439113  46.9902293  49.0102111  81.2215960  47.9976108  49.0099970
  81.4867683  45.7882068  49.3572200  82.0162007  44.9323478  49.2717450
  80.1013719  45.7034512  49.8187484  79.7542987  46.6780532  50.1619545
  79.2142400  45.2490292  48.6637096  79.1462314  46.1573317  48.0649938
  79.8057186  44.5056416  48.1292680  77.8124244  44.6990655  48.9143688
  77.8699565  43.9099228  49.6640652  76.8945016  45.7940305  49.4056401
  76.8360964  46.5833734  48.6562233  75.8995226  45.3841438  49.5791632
  77.2847416  46.2056232  50.3364487  77.2005603  44.0549200  47.6649978
  77.8304395  43.2283216  47.3362323  76.2040297  43.6807093  47.8995067
  77.1315563  44.7970881  46.8696841  79.9710621  44.7744660  51.0157224
  80.3091166  43.5930044  50.8969040  79.5220858  45.2915113  52.2131665
  80.0081896  46.5579048  52.6433813  79.4339300  47.3251606  52.1241081
  81.0553248  46.6267370  52.3486457  79.8268130  46.6124571  54.1431442
  78.8401492  46.9979047  54.4000948  80.5918027  47.2382730  54.6027599
  79.9857641  45.1486659  54.5732383  79.4386752  44.9056080  55.4841256
  81.0284051  44.8515465  54.6860184  79.3654037  44.4248048  53.3891914
  79.9469124  43.5174588  53.2258841  77.9083266  44.0561596  53.6311461
  77.0114587  44.9084686  53.5042752  77.6635910  42.8126739  54.0230759
  78.3814134  42.1195495  54.1793091  76.2781790  42.4270446  54.2263311
  75.6494370  43.3145432  54.2979469  75.7878611  41.5675056  53.0327202
  76.4090278  40.6735846  52.9765387  74.7562530  41.2802746  53.2361483
  75.8542674  42.3147766  51.7091711  76.7224578  42.9723255  51.6647209
  75.9767512  41.2634512  50.6693039  75.1086377  40.6057407  50.7128329
  76.0299677  41.7293726  49.6853395  76.8817541  40.6818275  50.8447577
  74.6281187  43.1312756  51.4666723  74.5148784  43.8638548  52.2657992
  74.7180401  43.6477850  50.5110398  73.7549589  42.4791572  51.4458796
  76.0321941  41.6248355  55.4830721  76.8483468  40.7624098  55.8368543
  74.8521059  41.8614652  56.1056099  74.3275488  42.6829743  55.8409174
  74.3240469  41.0131075  57.2000471  75.0457289  40.2341278  57.4459431
  74.0703418  41.8509403  58.4441025  74.2385531  42.8860988  58.1470317
  73.0177298  41.7104671  58.6898166  74.8932999  41.5395361  59.6206107
  74.7505729  40.5165412  59.9687646  75.9303730  41.6773007  59.3146655
  74.5944263  42.4927388  60.7730768  75.1264376  43.6271076  60.8114855
  73.6829403  42.0813311  61.6835701  73.4504565  42.6768500  62.4654972
  73.2388379  41.1804308  61.5774901  73.0389755  40.2959092  56.7398916
  71.9494073  40.8857667  56.6852342  73.1655198  39.0096510  56.4425177
  74.0773102  38.5757868  56.4648690  72.0259295  38.2025044  56.0224817
  71.2544634  38.8394197  55.5897251  72.4661993  37.1940121  54.9757330
  73.1071137  36.4560883  55.4582229  71.6053895  36.6928541  54.5330737
  73.2517955  37.9131187  53.8845684  73.7827602  38.7656396  54.3081076
  74.2329065  36.9578299  53.3016194  73.7026229  36.1052029  52.8774434
  74.8044033  37.4558697  52.5183898  74.9112694  36.6117789  54.0814738
  72.3296869  38.4307461  52.8313654  71.6232244  39.1303311  53.2781215
  72.9074458  38.9410316  52.0607134  71.7839847  37.5994543  52.3849776
  71.4123033  37.5127900  57.2328998  72.0299096  36.6351592  57.8420702
  70.1892190  37.9187958  57.5612214  69.7947175  38.6433799  56.9786016
  69.4084387  37.4392596  58.6855196  70.0513404  36.9944629  59.4450803
  68.6687044  38.6474375  59.3093266  68.6562925  39.5042226  58.6356319
  67.6452377  38.3411489  59.5256669  69.2615686  39.1325256  60.6167040
  70.5114437  39.7087055  60.6538239  71.0856028  39.8151208  59.7334344
  71.0393218  40.1520017  61.8538503  72.0310846  40.6040943  61.8647812
  70.3136853  40.0250011  63.0466087  70.7476714  40.3572730  63.9896630
  69.0608130  39.4837151  63.0250590  68.4717413  39.3861958  63.9369717
  68.5373486  39.0518658  61.8078721  67.5313061  38.6346064  61.7645931
  68.3965468  36.3557525  58.2844310  67.5931253  35.9556019  59.1174109
  68.2358046  36.0454202  56.9886298  68.8971751  36.4135709  56.3199344
  67.1049113  35.2075744  56.4803673  66.3569971  35.0605780  57.2595435
  66.4474996  35.9238810  55.3013267  65.9052995  36.7929597  55.6739130
  67.2065057  36.2476778  54.5891712  65.4646642  35.1041397  54.5344331
  64.3644632  34.5139478  55.1265558  63.6783703  33.8548849  54.2189911
  62.7733011  33.3107118  54.4888510  64.2904714  34.0036997  53.0476537
  63.9950062  33.6114799  52.1650644  65.3984000  34.7819454  53.2273975
  66.0358740  35.0270999  52.3779110  67.5248362  33.8147225  56.0345560
  68.2038788  33.7974289  55.0903680  66.9857772  32.6709164  56.5272963
  65.8338233  32.6025927  57.2655875  64.9854698  32.8087815  56.6129905
  65.8764036  33.3543290  58.0537363  65.8159848  31.1933037  57.8134271
  64.7956566  30.8714488  58.0218470  66.4112980  31.1243740  58.7238953
  66.4441684  30.3671113  56.6849891  65.8365559  29.9984573  55.8585507
  66.9259526  29.5264659  57.1842875  67.4962668  31.3322838  56.1625055
  68.3759695  31.2235508  56.7968544  67.8633539  30.9700394  54.7095093
  68.8731254  30.3526185  54.5325491  67.0288258  31.3010569  53.7257354
  66.1456996  31.7380558  53.9475898  67.3380459  31.0187190  52.2947241
  67.5726190  29.9605206  52.1794382  66.1568612  31.3585961  51.3873684
  65.2797071  31.4742676  52.0240159  66.3812170  32.3087714  50.9026711
  65.8785667  30.3027180  50.3282119  66.8291932  29.9772590  49.9057351
  65.3723639  29.4505550  50.7817304  65.0146287  30.8396593  49.2142788
  64.9340849  32.0445167  48.9903584  64.3452587  29.9429709  48.5129262
  63.7497789  30.2419301  47.7538947  64.4319023  28.9623729  48.7388063
  68.5576728  31.8089359  51.8211150  69.3825254  31.2340369  51.1049897
  68.6452495  33.0867548  52.1903076  67.9153681  33.5079754  52.7470352
  69.8231171  33.9132298  51.8343357  69.9452345  33.9254343  50.7512671
  69.6538076  35.3505916  52.3226648  69.2405358  35.2921455  53.3295856
  70.6521077  35.7861494  52.3649305  68.7626614  36.2166073  51.4621479
  69.1808740  36.2613410  50.4565645  67.7817887  35.7425716  51.4263964
  68.6245698  37.6229094  52.0151743  68.5547441  37.7618497  53.2487078
  68.6035066  38.5744914  51.2135553  71.0227469  33.2967137  52.5445400
  72.0757857  33.1784409  51.9237543  70.8395357  32.9135915  53.8061355
  69.9714542  33.0793524  54.2950702  71.9506318  32.3182238  54.5481758
  72.8409316  32.9306222  54.4052292  71.6425741  32.2443632  56.0478188
  70.7251141  31.6724081  56.1865047  72.7665815  31.5824412  56.8050185
  73.6843398  32.1541238  56.6671793  72.5182664  31.5450530  57.8656986
  72.9105952  30.5691054  56.4301688  71.4555065  33.6334106  56.6429953
  70.6266634  34.1347839  56.1432492  71.2383680  33.5468587  57.7076357
  72.3673906  34.2143195  56.5047454  72.3016263  30.9320638  53.9844416
  73.4374263  30.4802064  54.1500927  71.4596817  30.3183872  53.1626926
  70.5227878  30.6489449  52.9808665  71.8866832  29.0312727  52.5458272
  72.5542099  28.5094710  53.2315606  70.7096577  28.1383471  52.2464667
  69.9378740  28.7315337  51.7559783  71.0367407  27.3432243  51.5764694
  70.1841914  27.5688191  53.4345004  69.4376010  27.0060627  53.2165372
  72.7094838  29.2875830  51.2788318  73.7773178  28.6785929  51.1515070
  72.2203616  30.1483806  50.3866536  71.3613792  30.6291391  50.6127505
  72.8779455  30.4525580  49.0870673  72.9496700  29.5614449  48.4634710
  72.0176266  31.4861760  48.3639336  71.1447729  30.9476550  47.9948526
  71.7067666  32.2044199  49.1226113  72.6766794  32.2153801  47.2228912
  73.6217285  32.6502287  47.5482983  72.8582167  31.5324602  46.3929715
  71.5739271  33.5348006  46.6751314  70.3126303  33.4642176  47.9456594
  70.7661735  33.6497081  48.9193076  69.5545112  34.2220990  47.7482463
  69.8487788  32.4778412  47.9434744  74.2672423  31.0290868  49.3251909
  75.2098154  30.6178345  48.6482148  74.3739396  31.9389270  50.2783459
  73.5516727  32.2810971  50.7546820  75.6814614  32.5686705  50.5907799
  76.2292698  32.8818760  49.7020125  75.4909401  33.7892235  51.5059919
  74.9250670  33.4678238  52.3803998  76.8105516  34.3953436  51.9519840
  77.3768234  34.7174241  51.0780839  76.6176595  35.2534785  52.5957989
  77.3853829  33.6506545  52.5025374  74.6245692  34.8315322  50.8219459
  73.6488751  34.4017289  50.5952472  74.4984702  35.6898138  51.4819091
  75.1034595  35.1524495  49.8968638  76.6135868  31.5072045  51.1763406
  77.8180560  31.5618663  50.8941157  76.0668607  30.5420489  51.9130198
  75.0942675  30.5493197  52.1852494  76.9433995  29.4346303  52.4292734
  77.8383672  29.8615745  52.8818777  76.2129248  28.5939964  53.4854847
  75.4804934  29.2451490  53.9626049  75.6962831  27.7932766  52.9563068
  77.1242469  27.9952924  54.5447083  77.6868858  27.1735224  54.1017271
  77.8157484  28.7639473  54.8898131  76.3166544  27.4792077  55.7182640
  75.4352575  26.9639919  55.3364380  76.9304336  26.7778702  56.2835075
  75.8818203  28.5499785  56.6151866  76.3684613  29.4284856  56.5079239
  74.9139205  28.4643982  57.5352202  74.2336271  27.3436671  57.7244043
  74.4432718  26.5288316  57.1656625  73.5084097  27.3091380  58.4265204
  74.6318799  29.5200464  58.2809991  75.1472157  30.3788468  58.1506498
  73.9025219  29.4623154  58.9772769  77.4315686  28.5481555  51.2694831
  78.6455465  28.2957967  51.2110571  76.5342691  28.0128509  50.4347858
  75.5679076  28.0428159  50.7269278  76.8689773  27.2739419  49.2101871
  77.5291391  26.4318097  49.4177899  75.5433999  26.7317310  48.6391549
  74.9754791  26.2805374  49.4527823  74.9897893  27.5803110  48.2372501
  75.7153184  25.7103137  47.5489717  76.6806280  24.9365032  47.4963998
  74.7430634  25.6887065  46.6482169  74.7826810  25.0312108  45.8825605
  73.9671244  26.3298380  46.7317031  77.6907483  28.1170790  48.2378073
  78.3295568  27.5389102  47.3562709  77.7650355  29.4462695  48.3880335
  77.1951339  29.9642548  49.0414879  78.6772818  30.1913150  47.5216219
  78.5818334  29.8335903  46.4964284  78.3608653  31.6679793  47.5489903
  77.9086440  31.8206724  48.5289290  79.3149652  32.1931080  47.5038988
  77.4289857  32.2122793  46.4682354  76.4039196  31.8710368  46.6127831
  77.4862865  33.7435096  46.6213609  78.5110323  34.0855682  46.4764789
  76.8400023  34.2080852  45.8766549  77.1484420  34.0222565  47.6194900
  77.7535889  31.8275424  45.0589451  77.7235040  30.7422858  44.9619270
  77.0235224  32.2726179  44.3829185  78.7505081  32.1870935  44.8040451
  80.1366288  29.9681371  47.9233769  80.9758326  29.6265500  47.0715365
  80.4167619  30.0918729  49.2343292  79.6974157  30.4488338  49.8468806
  81.7875179  29.8969649  49.7911244  82.5006533  30.5888860  49.3430370
  81.8304359  30.0386568  51.3347923  80.8311654  29.8315475  51.7177606
  82.8291623  29.0896274  51.9836958  83.8288035  29.2964528  51.6015421
  82.8171896  29.2320246  53.0642884  82.5573468  28.0601746  51.7503667
  82.1219962  31.4844135  51.7601414  82.2041613  31.4793245  52.8470286
  83.0854419  31.7494781  51.3246960  81.0845925  32.4963522  51.3391667
  80.1209088  32.2321929  51.7746359  81.3803229  33.4864544  51.6860675
  81.0021879  32.5023447  50.2523026  82.3293791  28.5749599  49.2395574
  83.5178308  28.5360627  48.8930195  81.4785782  27.5686331  49.0791635
  80.5277915  27.6781686  49.4018182  81.8854021  26.2565022  48.5252666
  82.8252975  25.9434186  48.9798812  80.8248533  25.1902333  48.8107816
  79.9320735  25.4935482  48.2639328  81.2076586  24.2592645  48.3926222
  80.4729416  24.9801761  50.2842842  80.3216009  25.9673155  50.7210364
  79.5484676  24.4069552  50.3540527  81.5462336  24.2633698  51.0709062
  81.4351696  23.0770482  51.3687448  82.5885251  24.9875963  51.4403834
  83.3355549  24.5593514  51.9682605  82.6330508  25.9658444  51.1930992
  82.1698818  26.3857392  47.0160565  83.1557091  25.7746198  46.5976984
  81.3713156  27.1357221  46.2386019  80.5217854  27.4829359  46.6603132
  81.5487293  27.2999417  44.7630087  82.0882970  26.4511348  44.3428983
  80.1636643  27.3736356  44.1072267  79.5383303  26.5884048  44.5320435
  79.7274477  28.3467263  44.3328582  80.2052070  27.1985972  42.6014984
  80.2958954  26.0778951  42.1099504  80.1391888  28.2924016  41.8646547
  80.1636057  28.2213439  40.8574534  80.0645811  29.1950103  42.3116804
  82.5349005  28.4340281  44.3991181  83.7372778  28.1883207  44.6197570
  82.1093995  29.6141733  43.8910941  81.1090079  29.7420580  43.8366745
  82.9966028  30.6967399  43.3450687  84.0360985  30.3689212  43.3541594
  82.5962128  31.0212992  41.8957657  83.2873575  31.8077639  41.5926295
  82.7965208  30.1194527  41.3172766  81.1667113  31.4779674  41.6439156
  80.3165221  31.3493351  42.5448779  80.9073723  31.9484449  40.5176690
  82.9975518  31.9903535  44.1803538  83.8221466  32.8610100  43.8287821
  82.1460333  32.1417681  45.2043766  81.5119686  31.3646580  45.3233773
  82.0117672  33.2853999  46.0963834  81.2601446  33.0569007  46.8519963
  83.3262754  33.6305985  46.8023734  84.1287367  33.3467651  46.1214963
  83.3314349  34.7120585  46.9384530  83.5394776  32.9431258  48.1593480
  83.1997149  33.5985393  48.9612802  82.9776988  32.0095872  48.1911656
  85.0430208  32.6448895  48.3412328  85.2174231  32.3536867  49.3770338
  85.3169059  31.8213473  47.6817900  85.8924461  33.8006095  48.0281611
  85.8838583  34.5503746  48.7048278  86.6547665  33.9346013  46.9359781
  86.7297397  32.9826757  46.0086429  86.2006721  32.1297010  46.1209894
  87.3153530  33.1177077  45.1969021  87.3679266  35.0514126  46.7699978
  87.3262462  35.7817370  47.4664093  87.9457062  35.1606252  45.9488145
  81.5129376  34.5293883  45.3636685  81.6435124  35.6650006  45.8755688
  80.9112455  34.3314559  44.2050079  80.6835199  33.3851009  43.9354662
  80.5908942  35.4029035  43.2856271  80.7971349  36.3938462  43.6900978
  81.3974665  35.2233686  41.9932424  81.0888557  34.3102543  41.4842414
  81.1339863  36.4146860  41.0961303  81.4427962  37.3281928  41.6043050
  81.6994676  36.3054095  40.1707177  80.0697847  36.4691241  40.8667574
  82.7786570  35.0642375  42.3492637  83.3031508  34.9500595  41.5533554
  79.1117913  35.4200004  42.9769814  78.5608230  34.4206271  42.4989981
  78.4874864  36.5640509  43.2258849  78.9877081  37.3204736  43.6705219
  77.1012276  36.7672346  42.8876307  76.7555309  35.9333077  42.2767634
  76.2290561  36.8558971  44.1246714  75.2042800  37.1392620  43.8845933
  76.2302250  35.8861200  44.6222969  76.7228226  37.8467139  45.1210839
  77.8729071  37.6366417  45.8380388  78.4335069  36.7156703  45.6779154
  78.3394479  38.6020961  46.7829681  79.2648109  38.4251257  47.3311337
  77.6193366  39.7568664  47.0010948  77.9491179  40.5079815  47.7188485
  76.4569663  39.9503760  46.2860736  75.8480139  40.8332516  46.4805161
  76.0543013  39.0184909  45.3110284  75.1870455  39.2259138  44.6841768
  76.9888379  38.0522949  42.1063026  77.9604355  38.7923723  41.9679568
  75.7651710  38.3224703  41.6352140  75.0103116  37.7087497  41.9065691
  75.4677496  39.4241689  40.7374224  76.4070441  39.7875579  40.3205609
  74.5510002  38.9781641  39.5749030  73.6028324  38.6201466  39.9760282
  74.3681823  39.8230769  38.9109752  75.0348085  38.1764125  39.0170292
  74.7928895  40.5720255  41.4672184  73.7667569  40.3607867  42.1133453
  75.2918302  41.8031153  41.2737707  76.1623159  41.9213106  40.7753895
  74.6640493  42.9794970  41.8530082  73.8201359  42.6890812  42.4787623
  75.6288686  43.8261710  42.6931962  76.3971515  44.2515993  42.0475558
  74.8271340  44.9932598  43.3975367  74.0589191  44.5685733  44.0437474
  75.5113620  45.5957882  43.9949411  74.3577420  45.6209708  42.6400728
  76.3204782  42.9907304  43.6896811  76.8874961  42.2113918  43.1805405
  76.9999947  43.6100994  44.2751202  75.5865070  42.5315359  44.3518951
  74.0259668  43.7997301  40.7477963  74.7103143  44.4635437  39.9624001
  72.7100272  43.7777499  40.7335937  72.2168585  43.2858391  41.4649676
  71.9441657  44.4032307  39.7026048  72.3545231  44.1508745  38.7248409
  70.5016308  43.9189923  39.7646715  70.2645432  44.1499785  40.8031964
  69.9012714  44.5475955  39.1070040  70.1908205  42.4471867  39.4862199
  70.8393407  41.8610892  40.1373820  68.7594658  42.0483273  39.7145196
  68.1103341  42.6337135  39.0633285  68.6370221  40.9885076  39.4911576
  68.4917470  42.2331535  40.7548399  70.6372596  42.1090256  38.0750001
  71.7091129  42.2832920  37.9808667  70.4202456  41.0615125  37.8659010
  70.1033812  42.7391570  37.3636583  71.9883732  45.9064197  39.8519556
  71.8447337  46.4337852  40.9605797  72.0765629  46.6025424  38.6998251
  72.2754604  46.1156885  37.8375534  71.9751917  48.0550523  38.6651122
  72.2005029  48.4307905  39.6631877  72.9804773  48.6514980  37.6802110
  72.7621541  48.2916337  36.6747595  72.9079994  49.7389043  37.7000772
  73.9891745  48.3498905  37.9624558  70.5629204  48.4954877  38.3278477
  70.2434138  48.9466152  37.2255481  69.7371592  48.5137717  39.3412505
  70.0439737  48.3959046  40.2962749  68.3176872  48.6932033  39.0911934
  67.9927461  47.9842117  38.3297188  67.4938690  48.4609316  40.3585195
  67.8695770  49.1945105  41.0718250  66.4559627  48.6891388  40.1160903
  67.5753458  47.1061454  40.9543895  66.8910220  46.0061335  40.3842426
  66.3034628  46.1644859  39.4799207  66.9581110  44.7451828  40.9549749
  66.4535770  43.9027560  40.4818318  67.6813641  44.5532487  42.1334350
  67.7485403  43.2986027  42.7571696  67.2552574  42.6204747  42.2898217
  68.3642591  45.6596388  42.7284471  68.9240616  45.5259717  43.6541116
  68.3118620  46.9201124  42.1166548  68.8511606  47.7606993  42.5533134
  68.0116872  50.0871767  38.5845741  68.3864689  51.0763413  39.2080363
  67.2169284  50.1442676  37.5230596  67.0245093  49.2926050  37.0153736
  66.6645884  51.3884255  37.0154972  67.3966129  52.1926554  37.0893455
  66.2941750  51.1975496  35.5415551  65.6227064  50.3442977  35.4456893
  65.7951321  52.0948653  35.1756580  67.4697858  50.9636560  34.7759319
  67.2324284  50.8447284  33.8533716  65.4632765  51.8470980  37.8339496
  65.4198198  53.0026519  38.2688803  64.4699321  50.9686851  38.0305394
  64.5219877  50.0439070  37.6278298  63.2576811  51.3399545  38.7610712
  63.1738359  52.4259614  38.8017920  62.0073283  50.7769415  38.0709233
  62.1009659  50.8822350  36.9900697  61.9321061  49.7202068  38.3273474
  60.7302853  51.4796390  38.5202801  59.6429907  50.9160710  38.4295458
  60.8628488  52.6981204  39.0290551  60.0458232  53.2036035  39.3405931
  61.7801551  53.1143797  39.1023907  63.2734986  50.8960773  40.2191620
  62.6963285  51.5939178  41.0522691  63.9287917  49.7712108  40.5367501
  64.2701091  49.2679978  39.7302897  64.1287443  49.1669530  41.8820744
  64.7444552  48.2745526  41.7697316  64.8109012  50.1117496  42.8874437
  64.2438267  51.0408938  42.9441610  64.8654625  49.4819907  44.2329650
  65.4328129  48.5529602  44.1771373  65.3505050  50.1617875  44.9334723
  63.8531293  49.2688174  44.5762441  66.2021089  50.4275120  42.4556320
  66.1790619  50.9109883  41.4789941  66.6651685  51.0966186  43.1808712
  66.7809240  49.5061704  42.3907975  62.8423951  48.6509073  42.5171527
  62.8177151  47.5216531  43.0117503  61.8057646  49.4928228  42.6068329
  61.9242279  50.4706242  42.3832927  60.4935680  49.0353710  43.0096728
  60.5642319  48.5868886  44.0006165  59.4788207  50.1687878  43.0599822
  58.7963400  50.0005798  43.8930641  60.0042566  51.1125120  43.2062754
  58.6826854  50.2251081  41.7509308  59.3563169  50.5547636  40.9599512
  58.3062075  49.2296703  41.5154100  57.5079461  51.1845692  41.8189315
  57.6607153  52.3456410  42.2146585  56.3281160  50.6985172  41.4484234
  55.5108144  51.2913990  41.4731377  56.2540247  49.7384113  41.1437786
  59.9284603  48.0122423  42.0620495  58.8765007  47.4545807  42.3824047
  60.5663669  47.7840193  40.9110485  61.3570834  48.3550533  40.6487759
  60.1166554  46.7524703  39.9780478  59.4288936  46.0816352  40.4928907
  59.4036725  47.3483611  38.7720467  60.1483885  47.9095250  38.2076069
  59.0453881  46.5134230  38.1698751  58.2411717  48.2574801  39.1170039
  58.1484131  48.2772946  40.2028695  58.4528560  49.2626970  38.7525482
  56.9456997  47.7630185  38.5091116  56.9535670  47.3378143  37.3249763
  55.9140454  47.8233465  39.2286754  61.2922432  45.9178124  39.5193483
  61.3000671  45.4005638  38.4034613  62.3151927  45.7809122  40.3562555
  62.3629077  46.3068664  41.2171823  63.4553278  44.8943896  40.0084396
  64.3326641  45.1766485  40.5904276  63.1144237  43.4360189  40.3147537
  62.4603578  43.0846822  39.5167189  64.0491749  42.8758705  40.2907943
  62.4322651  43.2263327  41.6583456  61.5339773  43.8425830  41.6959693
  62.1559171  42.1760818  41.7516559  63.3529891  43.6079554  42.7957824
  64.3462520  43.2050378  42.5978299  63.4080184  44.6948161  42.8574677
  62.8874382  43.0924669  44.0712854  62.0085058  43.4464204  44.4209913
  63.5407373  42.1969224  44.7951647  64.6929172  41.7126524  44.3616704
  65.0699562  42.0282909  43.4794494  65.1902414  41.0295108  44.9149207
  63.0419889  41.7869317  45.9473099  62.1614385  42.1586169  46.2737777
  63.5434349  41.1036098  46.4966019  63.8178368  45.0825577  38.5378629
  64.1707676  44.0884340  37.8923802  63.7218568  46.3136110  38.0435992
  63.4635389  47.0850290  38.6421688  64.0864520  46.6064388  36.6402831
  63.7118121  45.8211226  35.9837600  63.4696124  47.9378117  36.2108447
  62.3958362  47.8649662  36.3834637  63.8893197  48.7094181  36.8562665
  63.7251302  48.2994645  34.7577869  64.8064158  48.3637994  34.6361999
  63.3423824  47.4676797  34.1664010  63.0845056  49.5941147  34.2846825
  62.4419397  50.2731011  35.1138005  63.2349268  49.9242885  33.0909272
  65.5916560  46.7834215  36.6500946  66.0254796  47.4607837  37.5316718
  66.3188228  46.1196363  35.7595225  65.8651851  45.4602665  35.1434513
  67.7809063  46.2735391  35.6633059  68.0544923  47.3282289  35.6929594
  68.4830571  45.5651656  36.7813508  68.2261669  44.5061000  36.7592683
  69.5607325  45.6796084  36.6646514  68.1738145  45.9937107  37.7346698
  68.2266433  45.7310555  34.3153148  67.5183956  44.8670965  33.7822574
  69.3270764  46.2413946  33.7709151  69.7667109  47.0201373  34.2403622
  69.8539069  45.8271513  32.4918533  69.5142866  44.8122082  32.2853398
  69.3994175  46.7416955  31.3404245  69.6898380  47.7559134  31.6144995
  69.9568001  46.4309619  30.4567563  67.9004764  46.7053911  31.0363335
  67.6357739  45.6786650  30.7836143  67.3820267  46.9996120  31.9488811
  67.4888374  47.6303865  29.8981187  66.2783175  47.6947569  29.5650316
  68.3763021  48.3059123  29.3368725  71.3631510  45.7067358  32.5595617
  71.9430095  44.9835569  31.7199175  71.9999707  46.2346952  33.6285886
  71.4763001  46.8222131  34.2615902  73.4210071  46.0413898  33.8819726
  73.7820819  45.2059205  33.2822100  74.2396646  47.2977267  33.5205316
  73.6897552  48.1243796  33.9703580  75.2699020  47.3111063  33.8762450
  74.2912813  47.5688687  32.0441053  73.3098604  48.3217889  31.4006527
  72.5136244  48.7892903  31.9799199  73.3470912  48.4755000  30.0247055
  72.6004748  49.0863140  29.5171911  74.3390230  47.8485413  29.2948576
  74.3604063  47.9660990  28.2114265  75.3011781  47.0758170  29.9276038
  76.0824615  46.5848064  29.3474271  75.2664702  46.9331261  31.2722750
  76.0089383  46.3123985  31.7738110  73.6200649  45.6787798  35.3246805
  72.6791722  45.6816584  36.1148694  74.8674804  45.3858772  35.6702881
  75.6039602  45.4403898  34.9812850  75.2174585  44.9838866  37.0229835
  75.0020948  45.7876666  37.7270115  74.6623006  44.0910846  37.3107398
  76.6994539  44.6770265  37.0639168  77.3990545  44.7559619  36.0583825
  77.1585414  44.2681002  38.2374921  76.5320375  44.1941758  39.0262426
  78.5656727  43.9181152  38.4340679  79.0235554  43.7520730  37.4589410
  79.3037503  45.0423406  39.1301086  78.8455612  45.1617740  40.1118920
  80.8239886  44.8085135  39.2959084  81.2829749  44.6894446  38.3144535
  81.2703406  45.6634033  39.8038774  80.9912999  43.9077068  39.8863784
  79.1307261  46.2087758  38.3091253  79.5838746  46.9533411  38.7114676
  78.5725673  42.6683957  39.2822304  77.7658566  42.5306941  40.2141988
  79.4649570  41.7459687  38.9616011  80.0375733  41.7884039  38.1306925
  79.5981806  40.5898603  39.8317401  78.6091191  40.1846403  40.0454063
  80.4587582  39.4815913  39.2148680  80.4081679  38.5869582  39.8354907
  79.9425826  39.1705939  37.8534878  79.9932943  40.0646927  37.2321061
  80.5484577  38.3828030  37.4058272  78.9075459  38.8362715  37.9243976
  81.8311653  39.9049092  39.1349191  82.3602393  39.2037711  38.7475093
  80.2078952  41.0686861  41.1351368  80.9450430  42.0540980  41.1658715
  79.8800248  40.3618800  42.2114448  79.1335513  39.6880159  42.1177232
  80.5149090  40.5154033  43.5191763  81.2840190  41.2876340  43.5040487
  79.5056750  40.8582181  44.5961594  78.7339385  40.0891930  44.6296731
  80.0079609  40.9105051  45.5621176  79.0480940  41.8219119  44.3725233
  81.1979542  39.2068103  43.8300276  80.7034109  38.1636293  43.4563281
  82.3630090  39.2674333  44.4535532  82.7340416  40.1840111  44.6592699
  83.1512865  38.0962623  44.8419374  82.5719582  37.1942805  44.6446894
  84.4775851  38.0116440  44.0580645  84.2767661  37.3863713  43.1881191
  84.7023351  39.0268637  43.7310837  85.6781015  37.4451262  44.8287700
  85.9677024  38.2364128  45.5202160  85.3609778  36.5682155  45.3931806
  86.8745548  37.0773986  43.9433967  86.6532885  36.6857315  42.7703084
  88.0291984  37.1310614  44.4390936  83.3910911  38.2716496  46.3292380
  83.8031439  39.3524008  46.7571298  83.1114540  37.2936098  47.0855760
  82.7606829  36.4205934  46.7182870  83.2418598  37.4335726  48.5373097
  82.9558060  38.4360172  48.8557075  82.3958250  36.3954224  49.2924842
  82.6372061  35.3934714  48.9376185  82.7086794  36.4959879  50.7886970
  82.4671027  37.4975906  51.1444124  82.1139356  35.7637602  51.3347951
  83.7679267  36.2982733  50.9530232  80.9179004  36.5926992  49.0198918
  80.5220655  37.3068911  49.7419344  80.7989565  36.9915355  48.0124786
  80.1746350  35.3063709  49.1354476  80.2927361  34.9071310  50.1428003
  79.1170792  35.4779332  48.9348449  80.5696289  34.5917744  48.4133455
  84.7124525  37.3011934  48.9111519  85.4265305  36.4533681  48.3644794
  85.1825506  38.1327195  49.8351401  84.6108985  38.8651935  50.2311135
  86.5779086  38.0504125  50.2415632  87.0176205  37.1214207  49.8786214
  87.3698143  39.2308373  49.6551874  88.4173696  38.9311803  49.6246480
  87.0164932  39.4187442  48.6413061  87.2309684  40.4847217  50.4746932
  88.0520003  40.7448139  51.5636962  88.8307278  40.0276197  51.8231483
  87.8904942  41.9099264  52.3254433  88.5299312  42.1142561  53.1842050
  86.9050597  42.8075978  51.9701053  86.6840816  43.9769268  52.6445467
  87.2834347  44.1025567  53.3838657  86.0885768  42.5543878  50.9058599
  85.3042500  43.2646735  50.6442761  86.2535265  41.4038579  50.1621264
  85.6037242  41.2084852  49.3090809  86.7796691  37.9992868  51.7510783
  87.9206372  37.8005080  52.1815662  85.7312267  38.1935153  52.5556999
  84.9084852  38.6202181  52.1543017  85.7199366  37.8753437  53.9703364
  86.5486021  37.2043756  54.1966425  85.8319163  39.1064292  54.8632708
  85.0037512  39.7837356  54.6547072  85.7967953  38.8016775  55.9092121
  86.7753563  39.6150847  54.6650543  84.4218366  37.1168632  54.2663258
  83.6053662  36.8343968  53.3632140  84.1993637  36.8182388  55.5455749
  84.7645622  37.1868572  56.2970870  83.1464937  35.8570435  55.8764061
  82.1797514  36.2180135  55.5253946  83.4493402  34.5073396  55.1876651
  83.4417755  34.6921104  54.1134669  84.4528962  34.2172784  55.4988564
  82.4912774  33.4080018  55.5101135  81.2703885  33.3285763  54.8750112
  81.0099718  34.0852803  54.1349560  80.3827990  32.3107289  55.1635948
  79.4218860  32.2506800  54.6525742  80.7238937  31.3577434  56.1175651
  79.8647058  30.3282824  56.4426518  79.0422970  30.3557923  55.9481960
  81.9393703  31.4271696  56.7582995  82.2114312  30.6813806  57.5052146
  82.8126874  32.4439044  56.4522498  83.7785583  32.5022599  56.9540348
  83.0213998  35.7104236  57.3857617  83.8961683  36.1322974  58.1472756
  81.8979219  35.1212559  57.8046385  81.2018201  34.8270495  57.1345756
  81.6135586  34.9359647  59.2249165  82.4022729  34.3486986  59.6951797
  81.5418816  36.3329245  59.9295800  82.4774848  36.8709268  59.7769382
  80.7178267  36.9131032  59.5143376  81.3137634  36.1234446  61.4245266
  81.1140609  37.0994505  61.8668298  80.4357847  35.4874379  61.5374465
  82.4909513  35.4851567  62.1242261  82.6751340  34.4722139  61.7662839
  83.3984110  36.0790785  62.0152618  82.1357328  35.4237163  63.5526609
  81.2864006  35.8927267  63.8333090  82.8272593  34.7815400  64.4648197
  82.3996249  34.8038243  65.7381187  81.5586505  35.3098758  65.9763914
  82.9210340  34.3144275  66.4513669  83.9043543  34.0917571  64.1759654
  84.2276149  34.0425231  63.2203616  84.4057146  33.6128934  64.9104218
  80.3083231  34.1578689  59.3856531  79.4459560  34.1525456  58.4951197
  80.1787651  33.4947265  60.5501920  80.9110104  33.5720742  61.2415193
  79.0218397  32.6386316  60.8527497  78.1791888  32.9304143  60.2259311
  79.3428023  31.1642003  60.5863827  80.2814976  30.9629083  61.1025532
  78.5414294  30.5927583  61.0547368  79.4679350  30.7619089  59.1468871
  79.2096609  31.6178763  58.5234169  80.4996236  30.4691668  58.9519001
  78.5495218  29.6102667  58.8243882  77.3714561  29.6774476  59.2485223
  78.9873317  28.6406183  58.1577988  78.6226527  32.8154409  62.3116120
  79.2597099  32.2392787  63.1835186  77.5456971  33.5307733  62.5792012
  77.0377985  33.9145074  61.7950543  77.1212788  33.8993847  63.9251993
  77.8573623  33.5298639  64.6391562  76.9847113  35.4218579  64.1032124
  76.2260666  35.7520010  63.3935906  76.6267916  35.5861378  65.1195812
  78.2715256  36.2188223  63.8810378  78.7743515  35.8046550  63.0071199
  77.9776091  37.2483340  63.6765433  79.2192413  36.1889527  65.0734155
  79.5152933  37.2650473  65.6521587  79.6658712  35.0821397  65.4444798
  75.8345781  33.1627223  64.3062123  75.3557273  32.2719518  63.6036728
  75.3224456  33.4907108  65.4957975  75.8246647  34.1227299  66.1027794
  74.0683795  32.9199575  65.9765260  73.3526670  32.8983466  65.1547061
  74.2429665  31.5061327  66.5057406  75.2467013  31.4161852  66.9211018
  73.5081162  31.3409462  67.2936546  74.0529076  30.4671120  65.4089636
  73.6827500  30.9859811  64.5247357  75.0066197  29.9923799  65.1783887
  73.0668340  29.4025034  65.7878150  73.2868288  28.2129458  65.5404612
  71.9594353  29.8265535  66.3639213  71.2530586  29.1613635  66.6443776
  71.8225568  30.8146462  66.5221570  73.5025695  33.8182903  67.0605648
  74.1834169  34.1385458  68.0410612  72.2482352  34.1996268  66.8937240
  71.7194494  33.7803519  66.1422631  71.5920221  35.1998073  67.7260144
  72.0080058  35.1630968  68.7328456  71.7939837  36.6014444  67.1669904
  72.8581132  36.7807061  67.0133908  71.2808902  36.6172658  66.2054370
  71.2193863  37.6919085  68.0680829  71.4686898  37.7032822  69.3145116
  70.5352703  38.5805669  67.4958971  70.1378816  34.7464177  67.6781144
  69.5492388  34.7074866  66.5953637  69.6052687  34.2853142  68.8097738
  70.1860461  34.2105133  69.6326966  68.2261800  33.8019220  68.8876159
  67.9709518  33.5333879  69.9127243  67.2941582  34.9052729  68.4297840
  67.4570740  35.2745104  67.4172519  66.2805360  34.5134662  68.5143866
  67.3691341  36.0657159  69.3151454  66.6239719  36.0941546  70.4673526
  65.9004262  35.3088849  70.6862886  66.7943175  37.0969128  71.3211843
  66.2284585  37.0435596  72.2512691  67.6409120  38.1787917  71.0811433
  67.7208230  39.0163060  71.7741685  68.3817996  38.1673868  69.9385578
  69.0561103  38.9916868  69.7063192  68.2731945  37.1002363  69.0718135
  68.8992168  37.0560624  68.1806095  67.9926674  32.5339692  68.0961682
  66.9114030  32.3239601  67.5430837  68.9941503  31.6741360  68.0516941
  69.8469927  31.8378629  68.5674000  68.8933860  30.4702691  67.2588764
  69.7746779  29.8565128  67.4452285  68.0004660  29.9256414  67.5657541
  68.8032862  30.7707031  65.7602372  68.7325052  29.8806520  64.9063817
  68.7837325  32.0620228  65.4263510  68.6960884  32.7698527  66.1414697
  68.8797892  32.4937692  64.0300827  68.2859047  31.8345722  63.3969479
  68.4100242  33.9418546  63.8426592  69.0737026  34.6049163  64.3976192
  68.4306481  34.3223575  62.3649539  67.7668009  33.6599824  61.8093760
  68.0945177  35.3528274  62.2498505  69.4453768  34.2264276  61.9786609
  67.0212016  34.1893863  64.3881899  66.3092072  33.6444879  63.7683105
  66.9820692  33.8062665  65.4078896  66.6598706  35.6890238  64.3885042
  66.6983388  36.0727695  63.3690145  65.6543859  35.8209362  64.7881278
  67.3712028  36.2345486  65.0085922  70.3382955  32.3635672  63.6492090
  71.2121003  32.9805927  64.2862887  70.6178534  31.5884714  62.6113372
  69.9553824  30.9295616  62.2278408  71.9582020  31.6325600  62.0401781
  72.7052716  31.6303560  62.8338917  72.1822580  30.4099120  61.1566682
  71.4646835  30.4645307  60.3380091  73.1941615  30.4784412  60.7573499
  72.0142570  29.0799382  61.8936699  72.7427422  29.0497396  62.7039156
  71.0074223  29.0397766  62.3093262  72.2292396  27.8945782  60.9781557
  71.3919964  27.6702096  60.0667900  73.2324046  27.1853679  61.1753734
  72.1867943  32.9309297  61.2498953  71.3850563  33.3224622  60.4011647
  73.2540482  33.6402473  61.5794274  73.8607950  33.3192911  62.3203354
  73.5626748  34.9017864  60.9366709  72.7398053  35.1747929  60.2760255
  73.8057224  36.0309170  61.9421549  74.5546762  35.7139186  62.6678825
  74.2951765  37.2576941  61.2196926  73.5465007  37.5755834  60.4940677
  74.4669942  38.0589338  61.9384376  75.2269109  37.0280369  60.7027519
  72.5276025  36.3380435  62.6904622  71.8446595  36.8050874  61.9808429
  72.1124018  35.3858435  63.0206486  72.7106825  37.2349326  63.8674943
  73.1254458  38.1875674  63.5380125  71.7474383  37.4054752  64.3483009
  73.3931905  36.7683240  64.5778176  74.7863518  34.6912088  60.0695391
  75.5271556  33.7185435  60.2187564  74.9841320  35.6127806  59.1291363
  74.2990350  36.3412551  58.9874803  76.1448736  35.5738495  58.2463314
  76.9874188  35.1033469  58.7531294  75.8697794  34.8123582  56.9410854
  74.8394083  34.9675960  56.6211857  76.8051693  35.3475093  55.8936498
  77.8358087  35.1922021  56.2126531  76.6341865  34.8254634  54.9521970
  76.6249213  36.4135647  55.7553094  76.0647408  33.3361060  57.1571025
  75.3773097  32.9872289  57.9277031  75.8677910  32.8031314  56.2269151
  77.0905570  33.1470126  57.4734022  76.5453356  37.0066746  57.9692967
  75.7153501  37.8032222  57.5234345  77.8093849  37.3296030  58.2580746
  78.3600404  36.6434541  58.7541366  78.4293155  38.6045449  57.9285004
  77.6745126  39.2962411  57.5544309  79.0827351  39.2174257  59.1653153
  79.7331469  38.4547377  59.5935335  79.6859604  40.0585718  58.8237126
  78.1029584  39.6936172  60.2174604  77.9094942  40.7546974  60.0600403
  77.1733829  39.1351240  60.1075654  78.6614324  39.4810776  61.6246326
  78.4976369  38.4374639  61.8932222  79.7319636  39.6834825  61.5915458
  78.0099620  40.3769224  62.6592236  77.5406810  41.2307017  62.1704121
  77.2570323  39.8180676  63.2149910  79.0719959  40.8630102  63.6049717
  79.7695524  41.3812510  63.0902475  78.6534546  41.4623802  64.3018783
  79.5066752  40.0720537  64.0583378  79.4734085  38.3766555  56.8358650
  80.4197890  37.6074295  57.0358435  79.3181819  39.0579253  55.6968820
  78.4789527  39.5993697  55.5464439  80.2974445  38.9870373  54.6191666
  81.2060640  38.5094154  54.9857551  79.7604085  38.1722454  53.4189135
  80.5695842  37.9799467  52.7143887  79.2119782  36.8706955  53.9159055
  78.4023918  37.0621889  54.6201790  78.8316224  36.2911936  53.0747114
  80.0020998  36.3098353  54.4151503  78.6905021  38.9672361  52.7592628
  79.1023132  39.9154835  52.4138058  78.2962844  38.4114446  51.9085056
  77.8876508  39.1582668  53.4713288  80.7491778  40.3698226  54.1306885
  80.0622902  41.3943761  54.2461420  81.9452186  40.3744269  53.5544071
  82.5415183  39.5694191  53.6828141  82.4665433  41.5087688  52.7939843
  81.7030908  42.2851453  52.7441943  83.7292596  42.1021613  53.4396886
  84.5309747  41.3720141  53.3290669  83.9857852  43.0085467  52.8912725
  83.5439303  42.4415897  54.9393057  82.5859873  42.9514548  55.0416952
  83.5131919  41.4985973  55.4851285  84.6752912  43.3410570  55.5206678
  84.8665027  44.1440125  54.8087692  84.3192191  43.7655614  56.4593415
  85.9848313  42.5537260  55.7743517  85.7246268  41.4989493  55.8628975
  86.6298736  42.6967542  54.9074247  86.7170266  43.0022798  57.0303766
  86.1196452  42.8694270  57.8338599  87.5588514  42.4556312  57.1426548
  86.9586053  43.9795262  56.9483505  82.7275410  40.9942881  51.3881380
  83.2960273  39.8917044  51.2250880  82.2356101  41.7423072  50.3876679
  81.6790390  42.5503101  50.6273744  82.4390323  41.4379145  48.9793588
  83.1669103  40.6342870  48.8676649  81.1354234  41.0181791  48.2880471
  80.3995496  41.8166033  48.3834864  81.3285631  40.8270545  47.2324579
  80.7506109  40.1122295  48.7563142  83.0054078  42.6706577  48.3018132
  82.9819729  43.7658736  48.8601474  83.3899886  42.4834943  47.0425942
  83.2203628  41.5697478  46.6471277  84.0673941  43.4825501  46.2154072
  83.7582998  44.4909778  46.4904226  85.6053807  43.3627346  46.3400323
  85.8818063  43.2128611  47.3836928  86.0772032  42.1563446  45.5058016
  85.8015244  42.3057167  44.4618717  87.1600884  42.0604416  45.5849408
  85.6042593  41.2482072  45.8795793  86.2538948  44.6654049  45.8881179
  85.7802219  44.9499921  44.9485729  86.0314773  45.4144839  46.6480591
  87.7677913  44.5756921  45.6888193  87.9909768  43.8270897  44.9286335
  88.1505154  45.5443840  45.3674821  88.2422321  44.2915790  46.6281199
  83.6398568  43.3077305  44.7472148  83.5459896  42.1807704  44.2333949
  83.3974253  44.4259858  44.0639389  83.4587808  45.3315603  44.5069623
  83.0340658  44.3697512  42.6461927  82.2027061  43.6769562  42.5159037
  82.7341090  45.3632248  42.3128225  84.2092713  43.8976869  41.8016038
  85.3607225  44.2233871  42.0746340  83.8985448  43.0926900  40.7852584
  82.9192814  42.9024902  40.6272502  84.8688808  42.5156639  39.8701179
  85.8625545  42.8601122  40.1565917  84.8612212  40.9851371  39.8760278
  83.9568524  40.6607890  40.3908236  84.8283552  40.6504356  38.8392082
  86.0685436  40.3904245  40.5581176  85.9596488  39.3058787  40.5598645
  86.9540367  40.6652308  39.9849811  86.2217477  40.9053666  42.0407343
  86.4461789  41.9719998  42.0359247  85.2936815  40.7323361  42.5855765
  87.3047826  40.2020246  42.7253279  87.2429112  39.1939631  42.7344539
  88.3451273  40.7781601  43.3152643  88.4619293  42.0921868  43.3771527
  87.7485095  42.6792933  42.9691845  89.2641358  42.5039273  43.8321629
  89.2822084  40.0106744  43.8620172  89.1933879  39.0053413  43.8230773
  90.0789015  40.4362457  44.3139772  84.6040156  42.8764819  38.4247315
  85.4635267  43.4448831  37.7416005  83.4565026  42.4587413  37.9205216
  82.7355995  42.0849430  38.5210820  83.2236848  42.4673514  36.4938851
  83.9040081  43.1816772  36.0302063  83.4483893  41.1001287  35.8614106
  83.2719694  40.3152802  36.5969295  82.7729725  40.9642567  35.0167503
  84.8876263  41.0254162  35.3762363  84.9048917  41.5567748  34.4246792
  85.5811661  41.5007855  36.0698706  85.3272582  39.6357680  35.1482286
  85.3214351  38.8233561  36.0562186  85.7999174  39.3554049  33.9404588
  86.1149972  38.4192587  33.7296117  85.8424293  40.0794397  33.2375592
  81.8269980  42.9456109  36.2703548  80.9294615  42.6364704  37.0594197
  81.6995960  43.7716289  35.2364800  82.5125346  44.0907378  34.7291343
  80.4095026  44.2750249  34.8443199  79.7485550  44.2736180  35.7110642
  80.4934052  45.7020618  34.2952417  80.2656156  45.6152341  33.2328519
  79.6938056  46.2496032  34.7941794  81.7919237  46.4410543  34.4705495
  82.0804342  46.3767412  35.5197045  82.5471893  45.9512828  33.8558952
  81.6738248  47.9617076  34.0485671  80.8949680  48.4071137  34.6675134
  82.6304627  48.4328115  34.2744088  81.3520029  48.2051580  32.6436871
  80.4572791  48.6232186  32.4320415  82.1568331  47.8713121  31.6283856
  83.3574796  47.3327562  31.8306193  83.6808772  47.1667395  32.7729316
  83.9394155  47.0926832  31.0407995  81.7642367  48.1194159  30.3840992
  80.8681258  48.5546744  30.2178599  82.3635960  47.8716892  29.6098263
  79.8271699  43.3342060  33.8085977  80.4431424  42.3301034  33.4549892
  78.6641629  43.6117066  33.3031621  78.2480643  44.5128369  33.4900457
  77.9259989  42.6736295  32.5078501  78.4332075  42.5252077  31.5545351
  77.8123316  41.3169288  33.2199617  77.2570922  40.5883801  32.6291782
  78.8191511  40.9424730  33.4048874  77.1207085  41.3967420  34.5762627
  75.7542912  41.6626118  34.6863675  75.1874681  41.8319929  33.7708777
  75.1149986  41.7143946  35.9189033  74.0437299  41.9092603  35.9690182
  75.8700866  41.5099437  37.1344965  75.3903123  41.5845140  38.1103837
  77.2215852  41.2156277  37.0474406  77.8050885  41.0348321  37.9501792
  77.8527274  41.1494551  35.7593305  78.9123496  40.9054241  35.6835049
  76.5470863  43.2546105  32.2474501  75.9546159  43.9122038  33.1014634
  76.0078508  43.0179638  31.0500674  76.5446017  42.6004317  30.3032978
  74.6249255  43.3725304  30.7884755  74.3608242  44.2365667  31.3982222
  74.3805502  43.7212030  29.3092564  75.2430869  44.2759315  28.9399245
  74.2801075  42.7915461  28.7491233  73.0805360  44.5885040  29.1230787
  72.3217965  44.1799587  29.7905410  73.3244192  45.6054795  29.4302984
  72.5418063  44.6038013  27.6842256  73.3511558  44.9051442  27.0192107
  72.2193531  43.5943443  27.4290395  71.3427295  45.5887239  27.5229833
  71.7416868  46.5003576  27.0781712  70.6433413  45.1224157  26.8290727
  70.6255940  45.9280632  28.8079095  71.2733864  46.3605579  29.4508816
  69.8683223  46.5670634  28.6121587  70.2554666  45.0835123  29.2200243
  73.7543606  42.1786106  31.1794247  74.0226156  41.0253856  30.8465789
  72.6785250  42.4838318  31.9115325  72.4942152  43.4173293  32.2502235
  71.7697921  41.4106350  32.3089756  72.3115981  40.4707116  32.4142823
  71.0344735  41.7090844  33.6375299  70.5126390  42.6610681  33.5399842
  70.0348887  40.6163333  33.9703004  70.5560807  39.6640606  34.0684658
  69.5344757  40.8544974  34.9088978  69.2952863  40.5446203  33.1728373
  72.0373895  41.8639673  34.7844827  72.7173833  42.6869795  34.5645707
  71.5017486  42.0734192  35.7103976  72.6078765  40.9418968  34.8959781
  70.7719890  41.1648536  31.1689026  70.2330062  42.1095042  30.6321179
  70.5486953  39.9072181  30.8079280  71.0559765  39.1550917  31.2518547
  69.6201337  39.5740536  29.7223600  69.4297272  40.4557831  29.1104796
  70.2203459  38.4843170  28.8351005  70.3725898  37.6366348  29.5031992
  69.5027586  38.2119787  28.0611493  71.5541350  38.8666556  28.1831145
  72.2007939  39.2865741  28.9535700  72.2427973  37.6687743  27.5396957
  71.5968945  37.2485720  26.7687622  73.1834366  37.9877318  27.0907363
  72.4412456  36.9121555  28.2988047  71.3093046  39.9604646  27.1588597
  70.8792356  40.8317822  27.6527683  72.2534927  40.2381882  26.6903730
  70.6191779  39.5977571  26.3971069  68.2594546  39.1337828  30.2632298
  67.2500280  39.3101537  29.6377658  68.2433632  38.5475604  31.4562232
  69.1033373  38.3346668  31.9412182  67.0013595  38.0745035  32.0239856
  66.2577782  38.8696548  31.9699451  66.4612838  36.8440621  31.2728231
  66.4018683  37.1217384  30.2204615  67.2000880  36.0524878  31.3980365
  65.0943097  36.3450476  31.7463168  64.8581905  35.4395777  31.1873241
  65.1915289  36.1030782  32.8046638  63.9770018  37.3625333  31.5591808
  63.1226246  37.1803459  30.6556364  63.9444005  38.3490391  32.3258491
  67.0925531  37.8102947  33.5114652  68.1595736  37.5024811  34.0441351
  65.9582730  37.9316913  34.1873879  65.1357477  38.3012110  33.7324080
  65.8653393  37.5709396  35.6065255  66.7684323  37.0394631  35.9066169
  65.7179265  38.8061753  36.4761295  64.8311207  39.3197834  36.1048054
  65.5287387  38.4387384  37.4847415  66.8985388  39.7806074  36.5014228
  67.1752329  40.0647179  35.4861285  66.4723585  41.0064284  37.2671755
  66.1959356  40.7231616  38.2827784  67.2963703  41.7191497  37.3008458
  65.6160497  41.4649399  36.7726021  68.1110909  39.1389520  37.1797676
  68.4037301  38.2438651  36.6308768  68.9400820  39.8466269  37.1882122
  67.8543015  38.8687090  38.2040365  64.6789132  36.6483808  35.8174193
  63.5454902  36.9973962  35.4691569  64.9393953  35.4667903  36.3702620
  65.8869536  35.1897698  36.5835513  63.8602763  34.5072248  36.6258514
  62.8884579  34.9948581  36.5491571  63.9321711  33.3633781  35.5575842
  64.9202022  32.9034224  35.5758697  63.1764439  32.6084143  35.7743932
  63.6740603  33.9591859  34.1758151  62.6723001  34.3887172  34.1847798
  64.4066787  34.7504366  34.0167724  63.7771974  32.9466020  33.0604310
  64.7793205  32.5239884  32.9880024  63.0513808  32.1415720  33.1753939
  63.4809199  33.6748708  31.8146597  63.2717519  34.6593433  31.8992886
  63.5021479  33.1396949  30.6159057  63.2085432  33.9116905  29.5563355
  62.9772049  34.8852472  29.6933390  63.2204854  33.5150028  28.6275751
  63.8305775  31.8870240  30.4093514  64.0792955  31.2978621  31.1910980
  63.8332814  31.5172398  29.4694839  63.9415737  33.9407958  38.0434525
  65.0307341  33.8609609  38.6252094  62.7919425  33.5461942  38.5901651
  61.9055153  33.7890592  38.1714018  62.7834396  32.7867954  39.8395178
  63.2058929  33.4721584  40.5743034  61.3379328  32.4454617  40.2575555
  60.8677733  31.8723041  39.4584681  61.3219580  31.6254011  41.5511159
  61.7915686  32.1981329  42.3508307  60.2917687  31.3975185  41.8247553
  61.8711548  30.6961375  41.3996148  60.6549629  33.6504278  40.6182476
  59.7548394  33.4422379  40.8790827  63.6106837  31.5347218  39.6155072
  63.4602693  30.8690264  38.5855920  64.5056989  31.2419494  40.5514833
  64.6219524  31.8470899  41.3517267  65.3700438  30.0881713  40.4328840
  65.7412823  30.0139983  39.4107394  66.5708085  30.1999566  41.3843261
  66.8819231  31.2444977  41.3998471  66.2313041  29.9077076  42.3780198
  67.7616937  29.3160200  40.9684240  67.7529267  29.1755627  39.8875467
  68.6795559  29.8262053  41.2605577  67.7311074  27.9415486  41.6404015
  67.9080165  26.9150486  40.9712304  67.5285084  27.9076299  42.9591464
  67.5014677  27.0199374  43.4401582  67.4031609  28.7698092  43.4700635
  64.5813208  28.8264031  40.7218307  63.5039760  28.8706028  41.3180727
  65.1071963  27.6920393  40.2914917  65.9217499  27.6628517  39.6950440
  64.4273258  26.4496687  40.5848952  63.5143300  26.6610079  41.1415580
  64.0549630  25.6952310  39.2991955  63.3833148  26.3264157  38.7173074
  64.9689316  25.5184966  38.7321625  63.4212484  24.4565161  39.5717118
  63.2058560  24.0185844  38.7450185  65.2311720  25.5653398  41.5282210
  66.1903019  24.9109957  41.1155956  64.8696678  25.5995316  42.8137679
  65.2514221  24.9097321  43.4450679  63.8916934  26.5613718  43.3414064
  63.5838965  27.2291616  42.5367842  62.6407823  25.8691710  43.9117427
  63.0058514  24.9947462  44.4504495  62.1453597  26.5443990  44.6093985
  61.6384400  25.4236446  42.8290396  62.0130787  25.2840538  41.6493442
  60.4390099  25.2496257  43.1666220  64.5181511  27.4539409  44.4277936
  65.4807426  27.0641505  45.0945320  63.9488696  28.6458862  44.6121949
  63.1393754  28.9050016  44.0665964  64.4584594  29.5984087  45.5833454
  63.6168487  30.1446338  46.0092899  64.9715026  29.0492458  46.3728428
  65.4290761  30.5917273  44.9595577  66.3947741  30.1831579  44.3159588
  65.2684632  31.6895670  45.0835599  64.3546543  32.0801750  45.2637763
  66.3972745  32.6255514  44.8201848  66.3411179  33.5337284  45.4203182
  67.7529244  31.9351686  45.0600155  67.8098625  31.0561808  44.4179570
  68.9158006  32.8624692  44.7525249  68.8597983  33.7415330  45.3945618
  69.8552902  32.3402588  44.9335121  68.8680710  33.1720674  43.7085086
  67.8442716  31.3772704  46.4811134  67.0596844  30.6277289  46.5846080
  68.8186241  30.8983200  46.5777740  67.6880796  32.4197859  47.5587050
  66.7137074  32.8988822  47.4629691  67.7647867  31.9458868  48.5372932
  68.4726463  33.1694751  47.4561334  66.2733154  33.2556345  43.4310993
  65.4743812  34.1743152  43.6101022  66.4877901  33.3265868  42.4625936
  66.8493633  32.3846808  42.4159321  66.5715350  34.1790157  41.2381816
  65.8743695  33.7745534  40.5043767  66.2412612  35.6521881  41.4646021
  65.1767993  35.7222319  41.6884635  66.8162947  35.9917994  42.3260548
  66.5655834  36.5284620  40.2601649  67.6330545  36.7478577  40.2818894
  66.3272010  35.9757687  39.3514262  65.8060444  37.8312446  40.2450989
  64.6184663  37.8790093  39.9377786  66.4925391  38.9128730  40.5707415
  66.0360803  39.8138137  40.5779883  67.4703688  38.8333958  40.8108122
  67.9318538  33.9924291  40.5655477  68.9484922  34.1419397  41.2411941
  68.0526328  33.6979864  39.3710495  67.2668069  33.5224182  38.7613342
  69.4004424  33.5441797  38.8262672  70.1228204  33.9692369  39.5231140
  69.7442910  32.0774001  38.6032901  68.9738468  31.6506136  37.9611310
  70.7061409  32.0367922  38.0921191  69.8237553  31.2833499  39.8934109
  69.5302210  31.8990425  40.7436232  69.1507064  30.4296394  39.8141288
  71.2309332  30.7706272  40.1294004  72.1754507  31.2058032  39.4554869
  71.3938117  29.8709690  41.0976967  72.3139652  29.5016607  41.2901294
  70.5964405  29.5620958  41.6351889  69.4591585  34.3332436  37.5315314
  68.5388091  34.2350145  36.7205757  70.4968742  35.1668077  37.3780322
  71.2056862  35.2064815  38.0964407  70.6227225  36.0604929  36.2325266
  69.6692974  36.1173985  35.7073204  71.0362271  37.4654032  36.6427048
  71.9938280  37.4258566  37.1618740  71.1303901  38.0907635  35.7549222
  70.2812451  37.8879225  37.3057122  71.6354550  35.4707943  35.2713542
  72.7068752  35.0170932  35.6994513  71.2608606  35.4233610  33.9956865
  70.2909769  35.6085915  33.7832848  72.1459749  35.0497728  32.9049461
  72.9844568  34.4826642  33.3092171  71.4384591  34.1925806  31.8491052
  70.5580464  34.7414814  31.5149189  72.1259864  34.0657384  31.0128533
  71.0122631  32.8126017  32.3754511  71.9121072  32.2814279  32.6856702
  70.3675525  32.9699369  33.2401452  70.2720483  31.9894983  31.3355704
  69.3622685  32.5166442  31.0483130  70.9110019  31.8655800  30.4612238
  69.9072345  30.6119986  31.9008018  70.8319999  30.1180733  32.1990421
  69.2793678  30.7669278  32.7782297  69.1808441  29.7551869  30.9134343
  69.7626382  29.6111485  30.1004962  68.9656685  28.8633146  31.3357651
  68.3236951  30.2124932  30.6372721  72.6916930  36.3515378  32.3325778
  71.9160502  37.2150827  31.8739401  74.0130283  36.4856006  32.3352314
  74.5969531  35.6862212  32.5355404  74.6574489  37.7656323  32.0890079
  73.9689636  38.4804878  31.6383764  75.2139661  38.3764565  33.4160153
  75.7246232  39.3094233  33.1774751  74.0864556  38.6529819  34.4329867
  73.5756019  37.7203414  34.6723843  74.5125217  39.0770330  35.3422439
  73.3738042  39.3571452  34.0035876  76.2622337  37.4381177  34.0420194
  77.0871991  37.2967907  33.3437639  76.6395249  37.8782987  34.9650534
  75.8030476  36.4741140  34.2609850  75.7838637  37.5528779  31.0869045
  76.4905983  36.5353197  31.1590121  75.9385015  38.5379944  30.1663712
  75.1904312  39.2105025  30.0756889  77.0939376  38.6652307  29.2840724
  77.5129287  37.6752193  29.1040080  76.7244355  39.2950502  27.9327033
  75.8961772  38.7209580  27.5173654  76.3974862  40.3170779  28.1241811
  77.8925475  39.3096321  26.9293371  78.7395208  39.8423213  27.3617481
  78.1780316  38.2772473  26.7273902  77.5163575  39.9810509  25.6058029
  76.3343667  40.2438774  25.3525860  78.5088462  40.2801024  24.7657842
  78.3021617  40.7237156  23.8822740  79.4623061  40.0615057  25.0172421
  78.0940006  39.5269105  30.0521374  77.8626458  40.7406845  30.2278775
  79.1851775  38.9132247  30.5495133  79.2525204  37.9088216  30.6316034
  80.2999009  39.7223346  31.0285050  79.9800206  40.2453293  31.9297554
  81.5223700  38.8585818  31.3470993  81.8687086  38.3777697  30.4322389
  82.6488589  39.7280868  31.9263357  82.3033979  40.2088951  32.8415301
  83.5133192  39.1026440  32.1491146  82.9301838  40.4904705  31.1998878
  81.1974194  37.7800508  32.3681527  80.4420396  37.1340542  31.9207262
  82.1117100  37.2096682  32.5319698  80.6951476  38.3018960  33.6755993
  79.7805548  38.8720386  33.5126354  80.4878553  37.4671006  34.3451109
  81.4502248  38.9476549  34.1238780  80.6402125  40.7586976  29.9569353
  80.7101730  40.4515999  28.7609129  80.8403767  42.0052941  30.3566934
  80.6730115  42.3049019  31.3066005  81.2576317  43.0191836  29.3653275
  80.9546016  42.7171821  28.3627972  80.5898430  44.3551599  29.6962226
  80.8190872  44.5214588  30.7487867  81.0572036  45.1353782  29.0954452
  79.0793470  44.3941025  29.4931385  78.6058094  43.7319076  30.2179564
  78.5575826  45.8050674  29.6818415  79.0303532  46.4678029  28.9570185
  77.4777661  45.8165522  29.5336347  78.7889824  46.1466798  30.6907298
  78.7045981  43.8713224  28.1192854  79.0453249  42.8410472  28.0166319
  77.6219792  43.9091751  27.9984361  79.1768373  44.4875739  27.3542212
  82.7854011  43.0907751  29.3915251  83.3736925  42.7342367  30.4234358
  83.4462778  43.4672693  28.2792472  82.9179027  43.5543688  26.9900745
  82.0494620  44.2119288  27.0291370  82.6030056  42.5548867  26.6901174
  84.0200554  44.0997616  26.1104222  84.0027439  45.1895543  26.0981232
  83.9242556  43.7238584  25.0917856  85.2966985  43.5674554  26.7724847
  86.2044421  44.1502142  26.6159833  85.4681002  42.5376692  26.4590180
  84.9058088  43.6042923  28.2409837  85.3071386  42.7024056  28.7031883
  85.4865366  44.8425892  28.9453734  86.4319199  44.8379848  29.2709379
  84.9150601  45.6524580  29.0764390  95.9526155  59.7908237  29.9133212
  95.4956194  60.4674634  29.3188346  95.2557933  59.1592363  30.2816098
  96.7596183  59.4252438  29.4283498  96.4875172  60.4959296  31.0758727
  96.0296333  60.0905671  31.9781602  98.0156234  60.3483740  31.1907576
  98.2346508  59.2845668  31.0988857  98.4457091  60.8818758  30.3431126
  98.6215477  60.8832504  32.4904176  99.7039138  60.7720370  32.4254870
  98.3683899  61.9418924  32.5477552  98.1124414  60.1718015  33.7365874
  97.6489842  60.8516575  34.6876985  98.1637501  58.9231151  33.7665328
  96.0644473  61.9628943  31.0991175  96.1060970  62.6096346  32.1501257
  95.6426412  62.4893910  29.9639651  95.6719912  61.9539871  29.1080559
  95.1560255  63.8512955  29.9050987  95.8709605  64.5982349  30.2501330
  94.7564250  64.1852355  28.4506598  93.9836522  63.4834221  28.1370033
  94.2310085  65.6078777  28.3236726  95.0034419  66.3103295  28.6367345
  93.9605682  65.8046250  27.2862471  93.3521651  65.7290568  28.9569581
  95.8652829  63.9455532  27.5738586  95.6111498  64.1546905  26.6720392
  93.9609924  64.0365110  30.8321413  93.8807341  65.0144165  31.5874587
  92.9621344  63.1622435  30.7044496  93.0308903  62.3676054  30.0848350
  91.7038193  63.3779945  31.4185768  91.4063618  64.4239871  31.3442955
  90.6034599  62.5135087  30.8089092  91.0245132  61.5111704  30.8872108
  89.7573800  62.6058370  31.4898823  90.1355489  62.7555649  29.3854550
  90.9970669  62.7360493  28.7179921  89.0987116  61.6267083  28.9473508
  88.2366479  61.6459135  29.6141163  88.7704409  61.8113666  27.9244919
  89.5790960  60.6498856  29.0034637  89.4873053  64.1385177  29.2375806
  90.2116748  64.9097723  29.4994101  89.1632822  64.2801068  28.2065312
  88.6258336  64.2094327  29.9016112  91.8735402  63.0807765  32.9133253
  91.2868084  63.7626697  33.7724950  92.7172280  62.0906321  33.2132954
  93.0867175  61.5242557  32.4630989  93.0832105  61.7537363  34.5705227
  92.2203319  61.3717093  35.1160454  94.1607054  60.6699617  34.5399210
  94.7295092  60.7652661  33.6150002  94.8263392  60.8113753  35.3914102
  93.5207627  59.2519973  34.6116094  93.0119583  59.2161721  35.5749035
  92.7822542  59.2306212  33.8102041  94.6029002  57.8173738  34.4590055
  95.3639759  57.6687354  36.1203455  94.5832386  57.5195646  36.8661982
  96.0456015  56.8182569  36.1335294  95.9162088  58.5798925  36.3504166
  93.5522542  62.9870664  35.2922898  92.9401122  63.3842182  36.3054422
  94.6003861  63.6296008  34.7478543  95.0402465  63.2372637  33.9276752
  95.1223993  64.8885866  35.2796793  95.6549629  64.6951244  36.2108332
  96.0897128  65.5534981  34.2903566  95.5581311  65.6826505  33.3475736
  96.3570895  66.5305149  34.6929086  97.3181968  64.7629619  34.0590099
  97.6165623  63.8865597  34.8937568  97.9823605  65.0222236  33.0448379
  94.0159198  65.8977022  35.5436904  93.9056716  66.4944747  36.6206648
  93.2142981  66.1302396  34.5139943  93.3408937  65.6969238  33.6104954
  92.1606301  67.1114342  34.6628865  92.5585452  68.0315907  35.0907587
  91.5636867  67.4278994  33.2969035  92.3798676  67.5419857  32.5835086
  90.9327891  66.5916256  32.9957152  90.7535018  68.6741425  33.3259654
  89.7019359  68.4391562  33.1613710  90.8677825  69.1707683  34.2895031
  91.2380441  69.5796827  32.2379670  90.5947689  70.4570979  32.1713444
  92.2608163  69.8945351  32.4451010  91.2136242  68.8802826  30.9493370
  91.9535627  68.2201490  30.7574670  90.2798064  69.0689597  30.0279390
  89.3291985  69.9695132  30.1900465  89.3064205  70.5296601  31.0301754
  88.6287129  70.0945441  29.4732572  90.2977321  68.3334844  28.9155233
  91.0203902  67.6403174  28.7836715  89.5885689  68.4730464  28.2100386
  91.0732238  66.6589034  35.6445200  90.2966372  67.4998047  36.1060472
  90.9761292  65.3686117  35.9711175  91.4184823  64.6371273  35.4332014
  90.1247478  64.9841125  37.0942075  89.3511546  65.7434175  37.2086999
  89.4652452  63.6068974  36.8833381  90.2505442  62.9006077  36.6139669
  88.7043648  63.0841562  38.1673776  87.9185558  63.7897426  38.4371051
  88.2613244  62.1107940  37.9567074  89.4080337  62.9911239  38.9945984
  88.4688414  63.7166486  35.7581198  87.5391736  64.1320189  36.1470748
  88.8704373  64.3803904  34.9924390  88.2060690  62.3907055  35.1699305
  87.8039903  61.7265006  35.9349562  87.4843922  62.4889398  34.3589854
  89.1352551  61.9748709  34.7803222  90.9025919  65.0031850  38.4094523
  90.4326406  65.5740641  39.4000076  92.0915260  64.3669983  38.4514204
  92.4703073  63.8677663  37.6593399  92.8226108  64.3153248  39.7184618
  92.1708370  63.9201245  40.4976324  94.0575758  63.4145527  39.6095898
  94.4474987  63.2666401  40.6166555  93.7324479  62.4572602  39.2021799
  95.1604219  64.0040297  38.7147685  94.7935049  64.0027214  37.6883811
  95.3371562  65.0306489  39.0355800  96.4597755  63.2198212  38.7887846
  97.2700922  63.8389036  38.4037875  96.6611327  62.9644485  39.8291401
  96.3594100  61.9357055  37.9580990  97.2462300  61.3358269  38.1625411
  95.4718495  61.3946123  38.2860529  96.2660056  62.2023504  36.4893324
  97.0885454  62.7033558  36.1851588  96.2023109  61.3259047  35.9914509
  95.4440911  62.7578389  36.2996268  93.1965354  65.7264261  40.1706648
  93.5795999  65.9154832  41.3350045  93.0370611  66.7164002  39.2942568
  92.8789664  66.5117801  38.3179187  93.1612363  68.1149826  39.6974749
  93.9416522  68.2139956  40.4519592  93.5328084  68.9964148  38.4842146
  94.3300982  68.4835798  37.9462292  92.6488879  69.0591774  37.8495135
  93.9954102  70.4102399  38.8570834  94.2475137  70.3950799  39.9174205
  94.8925718  70.6174975  38.2737761  92.9612116  71.4940527  38.5978672
  92.6327981  71.4234525  37.5609201  92.1105662  71.3314320  39.2597254
  93.5533632  72.8984258  38.8559731  92.8277736  73.5947721  38.4355898
  93.5717391  73.0044698  39.9406464  94.9314463  73.2032719  38.2943362
  94.9145261  73.1054855  37.2892237  95.1920235  74.1486035  38.5363025
  95.6040163  72.5584052  38.6840740  91.8694330  68.6014439  40.3584564
  91.8463809  68.9073486  41.5526946  90.7916287  68.7118247  39.5840367
  90.8316451  68.4611542  38.6064568  89.5358224  69.2314414  40.1138697
  89.6718937  70.2542573  40.4651979  88.4735576  69.2289392  39.0231116
  88.9298539  69.6545682  38.1293930  88.2088451  68.1884513  38.8349299
  87.2325066  70.0070540  39.3717817  86.8118958  69.6047769  40.2933892
  87.4858215  71.0572604  39.5166960  86.1786378  69.9064370  38.2691912
  85.0619621  70.4153559  38.4112546  86.5300166  69.2390697  37.1721813
  85.8724960  69.1415906  36.4117433  87.4525071  68.8332985  37.1053792
  89.0323479  68.4317084  41.2964218  88.0674170  68.8651337  41.9317988
  89.6367722  67.2703202  41.5721946  90.2039799  66.8117468  40.8735637
  89.4758686  66.6240162  42.8586635  88.4332521  66.6834696  43.1709378
  89.8765298  65.1612199  42.7809809  90.9085779  65.2131136  42.4341625
  89.8565932  64.7935904  43.8069200  89.0906917  64.2166159  41.8900938
  89.0771247  64.5605085  40.8558527  89.8220484  62.8853483  41.9718559
  89.8356228  62.5405657  43.0057995  89.3100615  62.1502017  41.3509456
  90.8452774  63.0099720  41.6174947  87.6929678  64.0692496  42.2655470
  87.1990168  65.0397096  42.2173899  87.2028820  63.3782584  41.5796547
  87.6282470  63.6792076  43.2813115  90.3160451  67.3118139  43.9296251
  89.8834173  67.4266767  45.0803587  91.5333162  67.7274799  43.5778154
  91.9504821  67.4469088  42.7018293  92.3199494  68.5509310  44.4843012
  92.5907789  67.9855002  45.3759506  93.6333779  69.0002346  43.7583482
  94.2069824  68.1230518  43.4589697  93.3831810  69.5887296  42.8756392
  94.4649831  69.8488448  44.7161424  93.8891450  70.7454457  44.9455287
  94.6111384  69.2685568  45.6271893  95.8082330  70.2446175  44.1508975
  96.4568509  69.3810685  44.0036666  95.7088525  70.7881233  43.2113102
  96.4269115  71.1350075  45.1479945  95.8945945  71.3238423  45.9852993
  97.6216273  71.6661527  45.0322670  98.0732152  72.4671775  46.0117984
  97.4933766  72.6496046  46.8184009  98.9904816  72.8832823  45.9371068
  98.4055813  71.4196693  44.0099662  98.0933312  70.8002625  43.2758441
  99.3178392  71.8504253  43.9616596  91.5196683  69.7521963  44.9646778
  91.5441992  70.1047566  46.1585708  90.7767868  70.3870388  44.0647206
  90.7328613  70.0775147  43.1043224  90.0305832  71.5874463  44.4412469
  90.6474906  72.1994283  45.0992762  89.6398588  72.4246532  43.2171615
  88.6635131  72.0572696  42.9011272  89.5437360  73.4504365  43.5730113
  90.5983616  72.3850734  42.0435147  91.5854420  72.7029785  42.3792370
  90.6522054  71.3594394  41.6784464  90.1286555  73.2932817  40.9278252
  88.9701020  73.8015918  41.0638981  90.9040997  73.4946703  39.9512210
  88.7453951  71.2800474  45.2262892  87.9049541  72.1655741  45.4347369
  88.5155966  70.0323832  45.6292381  89.1137542  69.2857901  45.3053470
  87.3760093  69.6890388  46.4724466  86.7525347  70.5672378  46.6402114
  86.5321106  68.6147141  45.7817757  87.1654427  67.7757363  45.4934944
  85.7328298  68.2592634  46.4320872  85.8589377  69.1216164  44.4931477
  85.9116577  70.3784912  43.9795310  86.4821240  71.1165311  44.5434150
  85.2049339  70.4410867  42.8160137  85.1056081  71.2621632  42.2363007
  84.6542307  69.2158791  42.5587719  83.8680878  68.7929158  41.5111787
  83.6120039  69.4983594  40.7206922  83.4559032  67.4929764  41.5363227
  82.8104033  67.1342560  40.7346061  83.8346102  66.6007394  42.5597186
  83.5106043  65.5600091  42.5599032  84.6226519  67.0237059  43.5826867
  84.9387807  66.2895775  44.3237797  85.0363809  68.3599827  43.6091588
  87.7919166  69.2269511  47.8606340  87.2759074  69.6435792  48.8968765
  88.8469593  68.2565470  47.8387524  89.1555507  67.8786593  46.9544043
  89.5365746  67.8123165  49.0705044  89.2094575  68.4480640  49.8932551
  89.2553816  66.3606561  49.4356365  88.1814757  66.2374654  49.5758124
  89.5854089  65.7432365  48.6001875  89.9825778  65.9336474  50.6983900
  90.1200218  66.7784127  51.6049734  90.3914191  64.7634962  50.7734976
  91.0194487  67.9532709  48.7488037  91.4414130  67.6360310  47.6374244
  91.7979571  68.3862030  49.6047035  91.3793420  68.5365545  50.5114864
  93.2059872  68.8015916  49.4033992  93.3313778  69.1166643  48.3674912
  93.6235749  69.9614919  50.3240717  93.4359586  69.6319751  51.3459906
  94.6944765  70.1045338  50.1798192  92.8943252  71.2831608  50.0726441
  91.8340331  71.1200895  50.2657481  93.2864690  72.0058792  50.7881862
  93.0759277  71.8194458  48.6584984  92.0620022  72.0952109  47.9699189
  94.2405354  71.9751784  48.2336806  94.1185810  67.5925769  49.5505630
  95.3186718  67.8605250  49.5598852  93.8471928  66.3091747  49.6686363
  92.8620917  66.1446713  49.8190153  94.7565420  65.1517063  49.6724911
  95.6029315  65.3613875  50.3265231  94.0493462  63.8773025  50.1751938
  93.1825792  63.6796922  49.5445081  94.7784779  63.0766446  50.0510411
  93.5969492  63.9028503  51.6309487  93.2882241  64.9520669  52.2208829
  93.4996385  62.7255247  52.2333606  93.2046700  62.6782154  53.1981690
  93.7209379  61.8815512  51.7246013  95.3228873  64.9454611  48.2731738
  94.5947516  65.1024446  47.2918143  96.6286200  64.6241445  48.1936312
  97.1491131  64.5932206  49.0586340  97.3582436  64.4486934  46.9391308
  96.9777465  65.1548525  46.2011196  98.8692817  64.6922842  47.1205678
  99.0564795  64.4471369  48.1660146  99.4019331  63.9878246  46.4817258
  99.3628703  66.1175468  46.8331291  98.7978870  66.5138642  45.9894305
  99.1789851  67.0329579  48.0444464  99.7440879  66.6375116  48.8884724
  99.5395544  68.0328431  47.8029511  98.1220715  67.0818554  48.3064446
 100.8164471  66.1104964  46.4207848 100.9360001  65.5096303  45.5192492
 101.1433560  67.1312358  46.2224849 101.4200891  65.6855291  47.2227312
  97.1277894  63.1157545  46.2362349  96.9970877  62.0832329  46.8330047
  97.0827822  63.1899365  44.8817127  97.1135504  64.1378330  44.5343729
  96.9165381  62.0981236  43.9127749  95.9842117  61.5710952  44.1155254
  96.8739395  62.6343197  42.4774432  96.2604629  63.5352846  42.4802950
  97.8938929  62.8907854  42.1910514  96.2975341  61.6253822  41.4704736
  95.5163431  61.0579919  41.9763488  95.8606036  62.1889590  40.6461103
  97.3476905  60.6696899  40.9297215  98.1241790  61.2443324  40.4247952
  97.7870864  60.1179897  41.7607796  96.7160959  59.6839388  39.9392912
  95.9027626  59.1702860  40.4518829  96.3135114  60.2595649  39.1058169
  97.6943978  58.6769875  39.4229613  98.0672388  58.1432021  40.1950769
  97.2285475  58.0551914  38.7776296  98.4479129  59.1527211  38.9475755
  98.0166769  61.0592117  44.0865640  97.7677195  59.8598693  43.9299525
  99.2300059  61.5519374  44.4348845  99.2362330  62.5618782  44.4438343
 100.4863568  60.8455630  44.7151375 101.0228687  60.6438175  43.7880168
 101.3820657  61.7290456  45.6243970 101.5340254  62.6900399  45.1329731
 100.7803302  61.8716787  46.5219883 102.7327985  61.1354890  46.0076171
 103.6074435  61.0114598  45.1142740 102.9360080  60.8507524  47.2092347
 100.2926002  59.4616784  45.3485424 100.8864730  58.4810492  44.8807866
  99.4543668  59.3893081  46.3967482  99.0421217  60.2459314  46.7378491
  99.2090522  58.1637448  47.1381167  99.8020219  57.3446954  46.7311227
  99.6137568  58.3807224  48.6134069 100.6110215  58.8197361  48.6422011
  98.8879593  59.1042920  48.9845740  99.5824192  57.1446053  49.4830698
 100.5621226  56.3606366  49.4390785  98.6058906  56.9863545  50.2522971
  97.7612154  57.6569414  46.9856404  97.5428754  56.6321565  46.3363481
  96.7835457  58.3937614  47.5540445  97.1156647  59.2013432  48.0615955
  95.3529120  58.0736924  47.6152228  95.1917623  57.2447808  48.3044511
  94.5477874  59.2784749  48.1032264  93.4922630  59.0538255  47.9499289
  94.7427079  59.3955755  49.1692440  94.8778448  60.4812197  47.4276377
  94.3436886  61.1997452  47.7740450  94.7153770  57.5036949  46.3279431
  93.9917877  56.5125580  46.4103339  94.9132747  58.0215094  45.1937105
  95.5699331  58.7889061  45.1948709  94.1883798  57.7210313  43.9403796
  93.2244129  57.2615607  44.1589058  93.9471726  59.0215481  43.1752729
  94.8602623  59.5984343  43.3221366  93.8354231  58.7821189  42.1177826
  92.7471412  59.8419379  43.6403699  92.6038868  59.6816227  44.7089569
  92.9704558  61.3191251  43.3764429  93.1133381  61.4802980  42.3079361
  92.1026279  61.8846372  43.7158122  93.8560766  61.6552697  43.9156859
  91.4830243  59.3708128  42.9506347  91.3080375  58.3216247  43.1887175
  90.6374276  59.9667137  43.2941015  91.5929091  59.4846899  41.8721838
  94.8721121  56.6257703  43.0948079  96.0996502  56.5831377  43.0251098
  94.0847475  55.6603558  42.3934850  92.6739684  55.4610597  42.4878851
  92.1936913  56.4278548  42.3370826  92.4582365  55.1017931  43.4941089
  92.2994330  54.4543006  41.4236289  92.0824357  54.9516841  40.4783137
  91.4338525  53.8680979  41.7322359  93.5490044  53.5714493  41.3179973
  93.6701398  53.1307069  40.3284664  93.5882430  52.7857061  42.0724292
  94.6512321  54.5873315  41.5695354  95.4304029  54.0830677  42.1411202
  95.2419680  55.1363390  40.2868773  94.9068912  56.2351105  39.8487590
  96.1656375  54.3589399  39.6323551  96.3313563  53.4174696  39.9583463
  96.9636017  54.8548842  38.5173029  96.8651122  55.9373718  38.4359425
  98.4463768  54.5118320  38.7480981  98.9541446  54.4460484  37.7858385
  98.9074744  55.2958316  39.3487924  98.5569645  53.2627504  39.4305308
  99.4838223  53.0557109  39.5707770  96.5533604  54.3325105  37.1437995
  96.9472007  54.9311199  36.1401374  95.9469726  53.1429647  37.1014353
  95.8279858  52.6031910  37.9467671  95.4866795  52.5562444  35.8242871
  96.3156631  52.5661102  35.1166233  94.9938314  51.1177362  35.9791928
  94.2329087  51.0936861  36.7592681  94.5542417  50.8002410  35.0336466
  96.0954784  50.1503238  36.3488430  96.3977612  49.9626990  37.5244071
  96.6998951  49.5301112  35.3484262  97.4428462  48.8734331  35.5405132
  96.4155088  49.7162386  34.3973311  94.3897025  53.4828411  35.3183018
  93.7304237  54.0764935  36.1574093  94.2432626  53.7455664  34.0075159
  95.0385196  53.3656182  32.8576635  95.3128851  52.3176987  32.9788600
  95.9392552  53.9794168  32.8627265  94.1850063  53.6044720  31.6325362
  93.5811443  52.7263767  31.4036291  94.8050081  53.8530142  30.7711850
  93.3092731  54.7959118  32.0385862  92.3525964  54.7601027  31.5174465
  93.7596201  55.7792457  31.9031548  93.1018878  54.5199531  33.5188792
  93.0597098  55.4845188  34.0247768  91.8154320  53.7272666  33.8182391
  90.8197218  54.3583194  34.0968332  91.8603810  52.3951256  33.7171658
  92.7144409  51.9762581  33.3777086  90.6777469  51.5048016  33.9551988
  89.7601027  51.8918521  33.5122314  90.9207110  50.0609486  33.4577665
  90.1738914  49.4032532  33.9025111  90.8171721  49.9926885  31.9386318
  91.5640438  50.6498185  31.4931393  90.9911438  48.9688077  31.6077200
  89.8221800  50.3105560  31.6271031  92.2386778  49.4525315  33.9585389
  92.9859767  49.6649324  33.1939926  92.4951962  49.9849195  34.8744324
  92.2066646  47.9663775  34.2321800  91.9506505  47.4332544  33.3165729
  93.1863533  47.6393726  34.5805721  91.4598679  47.7532413  34.9970116
  90.2379442  51.5243920  35.4321879  89.0239197  51.3809698  35.6598575
  91.1600136  51.5933295  36.4060333  92.1423987  51.5842898  36.1716469
  90.7833720  51.6090867  37.8238111  89.8936183  51.0001256  37.9838230
  91.9204593  51.0396492  38.6629652  92.7629669  51.7219869  38.5502913
  91.6087496  51.0173859  39.7072072  92.3373914  49.6452914  38.2297148
  91.6278225  48.9952045  37.4169093  93.3776584  49.1837781  38.7306571
  90.4058601  53.0089505  38.3167920  89.4617735  53.1713563  39.1007454
  91.1428348  54.0231136  37.8961075  91.9918653  53.8753804  37.3693993
  90.7841772  55.3857628  38.2583956  90.8475751  55.5316956  39.3367200
  91.7815086  56.3461522  37.5703896  92.7775338  55.9552946  37.7783879
  91.6263733  56.3889176  36.4923338  91.7650269  57.7613136  38.0622969
  90.9014029  58.6875261  37.4888634  90.2270785  58.3555465  36.6994484
  90.8863155  60.0268397  37.9072848  90.1863525  60.7320755  37.4591834
  91.7487101  60.4451372  38.8755186  91.7468770  61.4866884  39.1968712
  92.6360540  59.5367986  39.4564281  93.3175117  59.8761615  40.2365232
  92.6547250  58.1999635  39.0442528  93.3635979  57.5020994  39.4898814
  89.3425789  55.6564383  37.8756396  88.5652766  56.1826076  38.6818003
  88.9459994  55.2526342  36.6643416  89.5644274  54.7533533  36.0411523
  87.6075593  55.5857628  36.1899342  87.4734938  56.6674846  36.1918539
  87.4012515  55.0697967  34.7634865  86.5719549  55.6324156  34.3347368
  88.3132334  55.2875547  34.2076353  87.1190917  53.6739064  34.6853447
  87.0021348  53.4220472  33.7663845  86.5274963  55.0273399  37.1019478
  85.4580690  55.6355511  37.2114442  86.7844809  53.8771958  37.7379763
  87.6503234  53.3943707  37.5448547  85.8327955  53.2521763  38.6485502
  84.8142139  53.3780291  38.2814647  86.1341297  51.7734048  38.7400182
  87.2152178  51.6662963  38.8287631  85.6541101  51.3526574  39.6235638
  85.6562062  51.0413214  37.5124152  84.4466849  51.3267842  36.9322065
  83.8306111  52.1004876  37.3903937  84.0023891  50.6696230  35.8049521
  83.0405407  50.9238914  35.3596466  84.7788334  49.6713573  35.2487339
  84.3645587  49.0209317  34.1294399  83.5164536  49.3336332  33.8061208
  85.9872946  49.3408869  35.8193931  86.6117856  48.5505825  35.4028233
  86.4106339  50.0427196  36.9582353  87.3641132  49.7978084  37.4262052
  85.8844856  53.9300930  40.0133102  84.8446099  54.3366499  40.5598595
  87.0806142  54.1164990  40.5732587  87.9140430  53.6453389  40.2515383
  87.1871470  54.9978885  41.7372799  86.8732764  54.4672289  42.6361597
  88.6075444  55.4470791  41.9169933  89.2726354  54.5868490  41.8411159
  88.9082095  56.2032311  41.1917796  88.8257787  56.0318104  43.2500755
  89.3600166  55.4100304  44.3486057  89.6540590  54.3674022  44.2279192
  89.4088075  56.2742642  45.4027107  89.7972466  56.0725492  46.3129446
  88.8653561  57.4635364  45.0203743  88.6907787  58.6357508  45.7397339
  89.0017931  58.6679724  46.7839228  88.1245908  59.7002120  45.0706341
  87.9706944  60.6385448  45.6035012  87.7355719  59.6106171  43.7067829
  87.3048300  60.4619229  43.1796783  87.8937390  58.4451868  43.0183212
  87.5575723  58.4128063  41.9819602  88.4849592  57.3453346  43.6669304
  86.2823258  56.2107458  41.6310407  85.4067361  56.4437529  42.4619904
  86.4005800  56.9261700  40.5109973  87.0771471  56.6823699  39.8018302
  85.5934581  58.1400079  40.3166168  85.5629209  58.8457331  41.1467484
  86.0947062  58.8819077  39.0553476  86.0982210  58.1831397  38.2188010
  85.2293737  60.0286927  38.7328561  85.2257190  60.7281727  39.5688078
  85.6069832  60.5302041  37.8417905  84.2139025  59.6778693  38.5488921
  87.5602257  59.2090113  39.2553770  88.1228970  58.2863186  39.3972969
  87.9389488  59.7336498  38.3782094  87.6748409  59.8427650  40.1347634
  84.1112338  57.7982965  40.2168199  83.2493775  58.5727800  40.6112967
  83.7924325  56.6476429  39.6233992  84.4947260  56.0056612  39.2846623
  82.3896254  56.3065742  39.4219092  81.8466958  57.1358100  38.9683734
  82.3025155  55.1023993  38.4939417  82.8339238  54.2610636  38.9387556
  81.2569365  54.8330531  38.3445513  82.7542436  55.3498903  37.5333225
  81.7214697  56.0000312  40.7550758  80.5425980  56.3188717  40.9936788
  82.4721838  55.3589925  41.6336261  83.4107245  55.0654356  41.4032679
  81.9569593  55.0327758  42.9321663  80.9455069  54.6403833  42.8268505
  82.8323495  53.9598499  43.5834825  83.8462950  54.3413005  43.7039402
  82.4238431  53.7005258  44.5601983  82.8513372  53.0723938  42.9509002
  81.8955784  56.2479879  43.8407261  81.0662424  56.2704724  44.7494887
  82.7556052  57.2529758  43.6521472  83.4056564  57.2837604  42.8797580
  82.8568426  58.2795916  44.6818506  82.2574951  58.0017274  45.5488414
  84.3067965  58.4296121  45.1206964  84.9611777  58.4008702  44.2494569
  84.4148260  59.3903720  45.6240553  84.7292958  57.3229294  46.0852687
  84.4868457  57.3737760  47.3157541  85.3498580  56.2989031  45.5400121
  85.6571034  55.5313114  46.1201009  85.5161098  56.2851470  44.5438836
  82.2529712  59.6143003  44.3008033  82.2841950  60.5368924  45.1168921
  81.6172594  59.6924267  43.2519206  81.4825600  58.9037880  42.6354756
  80.9996450  60.9646445  42.8926684  81.5969342  61.7968591  43.2651783
  80.9148585  61.0666963  41.3917328  81.1347606  60.0433843  41.0874717
  79.8641616  61.2843702  41.2000189  81.7768057  62.0205478  40.6051652
  81.4820066  63.0481815  40.8176819  83.2083267  61.8179053  41.0070515
  83.5040091  60.7905555  40.7943937  83.8442816  62.5021465  40.4453788
  83.3179847  62.0136100  42.0737169  81.5570335  61.7421234  39.0974670
  80.5068923  61.8949002  38.8485451  82.1722076  62.4223169  38.5084007
  81.8371172  60.7129352  38.8729148  79.5834804  61.0893089  43.4253134
  78.7803214  60.1790103  43.2017224  79.1941806  62.2693998  44.0181887
  79.9648442  63.3410593  44.4565533  80.5964292  63.6577912  43.6265644
  80.5917293  62.9871191  45.2749911  78.9986338  64.4180706  44.8947590
  78.7324792  65.0639735  44.0580570  79.4272038  65.0202135  45.6959162
  77.7869415  63.6229441  45.3958624  76.8191184  64.1227065  45.3551792
  77.9776423  63.2838192  46.4140604  77.7968464  62.4375984  44.4439872
  77.5553490  61.5514740  45.0309801  76.7702912  62.6087887  43.3441880
  76.1956597  63.6831663  43.2193706  76.4377941  61.5525253  42.6179068
  76.7703926  60.6284451  42.8536043  75.6306836  61.7101639  41.4155143
  75.3585753  62.7610792  41.3173640  76.3997631  61.2619853  40.1644673
  75.7058403  61.0047135  39.3642281  77.2706528  62.4137115  39.7239541
  77.9652027  62.6712710  40.5235566  77.8316227  62.1263142  38.8346757
  76.6448394  63.2763175  39.4951139  77.2671090  60.0449444  40.4927090
  78.0115652  60.3488279  41.2286035  76.6238218  59.2774133  40.9230311
  77.9646912  59.4903595  39.2691908  78.6085606  60.2572271  38.8385562
  78.5677429  58.6281102  39.5537152  77.2208166  59.1858145  38.5329824
  74.3330459  60.9450593  41.5201483  74.2052693  60.0086201  42.3022114
  73.3451267  61.3977625  40.7261051  73.3930839  62.3076775  40.2903827
  72.1507554  60.6001220  40.5229624  71.5447080  60.6282957  41.4285076
  71.3126503  61.1177459  39.3596077  71.9627539  61.2070775  38.4892719
  70.5377223  60.3778617  39.1592127  70.6685422  62.4573531  39.6476187
  70.6928102  62.9751095  40.7829954  70.0997859  63.0693285  38.7231154
  72.5841206  59.1563493  40.2880076  73.6020706  58.8841807  39.6361917
  71.8553296  58.2218743  40.8862669  71.2672528  58.4433204  41.6769796
  71.9167651  56.8297742  40.4348237  72.8968743  56.4080341  40.6575801
  70.8354585  55.9852776  41.1640853  70.0054996  56.6714755  41.3326079
  70.5091312  55.1741100  40.5132261  71.2951451  55.4150123  42.4887512
  72.5322051  55.2603471  42.7207666  70.4110520  55.0703959  43.2822592
  71.7123493  56.7338633  38.9067294  72.2740909  55.8338575  38.2582736
  70.9156899  57.6445520  38.3191274  70.3367236  58.2911572  38.8356533
  70.8539195  57.6731161  36.8604035  70.4452419  56.7290173  36.5001824
  69.9748207  58.8059033  36.3579660  69.8404599  58.7099810  35.2805407
  69.0036725  58.7569268  36.8504826  70.5830873  60.0373344  36.6453527
  70.0259771  60.7514191  36.3270587  72.2445417  57.8209451  36.2783121
  72.5894114  57.2031781  35.2751821  73.0822673  58.5892862  36.9210357
  72.8611301  59.0307145  37.8021366  74.3724576  58.8848664  36.3028745
  74.2635872  58.9702166  35.2216891  74.9076219  60.2170948  36.8490023
  74.5890100  60.3126871  37.8870041  75.9966187  60.2174053  36.8022490
  74.3608400  61.3975950  36.0357901  73.2730227  61.3475451  35.9883633
  74.7679321  62.6525829  36.7071792  75.8557066  62.7035695  36.7545710
  74.3888971  63.5057304  36.1445315  74.3593633  62.6738163  37.7174866
  74.9178488  61.3331822  34.6335785  74.6174040  60.3958098  34.1654277
  74.5329103  62.1697222  34.0503767  76.0058387  61.3874564  34.6714113
  75.3313399  57.7331140  36.5576551  76.1228397  57.3502801  35.6875929
  75.3014919  57.2124267  37.7767232  74.8087750  57.6803642  38.5239607
  76.0194516  55.9815372  38.0865001  77.0932221  56.1648487  38.1253963
  75.5559148  55.4610802  39.4692843  74.5709783  55.0151825  39.3308117
  76.2632025  54.6904596  39.7758591  75.4782668  56.5509227  40.5597201
  75.3117330  57.5157831  40.0807507  74.6426621  56.3258090  41.2224347
  76.7905132  56.6027590  41.3827763  77.6267301  56.5571128  40.6850966
  76.8149199  57.5527159  41.9167102  76.9292931  55.5169492  42.3519920
  76.4962950  54.6310495  42.1333741  77.5836341  55.6379922  43.5103165
  78.1107886  56.8002011  43.8928405  78.0182790  57.6126709  43.3000211
  78.6005192  56.8634747  44.7738967  77.7268780  54.5611026  44.3045280
  77.3400245  53.6725656  44.0200172  78.2205869  54.6462988  45.1815068
  75.7964306  54.9116947  37.0029339  76.7238578  54.2075686  36.6218471
  74.5546253  54.7234334  36.5733511  73.7957607  55.2840889  36.9337525
  74.2398637  53.6627410  35.6218792  74.7263300  52.7333537  35.9180022
  72.7182286  53.4615706  35.6081986  72.2346847  54.4363598  35.6720088
  72.2723795  52.7538264  34.3248386  72.7551857  51.7787027  34.2605534
  71.1903783  52.6227466  34.3387084  72.5538852  53.3557249  33.4607947
  72.2194807  52.6143648  36.7937485  72.4794678  51.5790071  36.5734264
  72.7700945  52.9473732  37.6735379  70.7350019  52.7148723  37.0609004
  70.1836890  52.3815698  36.1816602  70.4750855  52.0856871  37.9121751
  70.4743153  53.7499371  37.2817696  74.7920312  54.0361432  34.2547626
  75.4665681  53.2359078  33.5743676  74.5465746  55.2792851  33.8400201
  73.8487306  55.8635723  34.2778801  75.2236248  55.7840744  32.6473820
  74.8322134  55.3049012  31.7500028  74.9780884  57.2774526  32.5458021
  73.8952354  57.4017269  32.5549942  75.4006702  57.7102973  33.4525381
  75.5606026  57.9848715  31.3255559  76.6360812  57.8075905  31.3212979
  75.1203647  57.5666356  30.4203645  75.3133161  59.4992149  31.3365743
  76.1356851  60.3061761  30.8788332  74.1811959  59.8808958  31.8834797
  73.9505375  60.8632705  31.9263520  73.5468898  59.1901335  32.2584527
  76.6963134  55.4236599  32.6638343  77.2498411  55.0501746  31.6278509
  77.3450822  55.4434597  33.8375128  76.9244584  55.5654685  34.7476166
  78.7942386  55.3099581  33.7583735  79.1558396  55.8388099  32.8765234
  79.4752680  55.8859352  34.9807034  79.0888093  55.3919858  35.8721982
  80.5522098  55.7300197  34.9175639  79.1854607  57.3635568  35.0596666
  78.1156895  57.5652462  35.0047850  79.7300681  57.8164972  36.4537551
  80.7999455  57.6155368  36.5092181  79.5542786  58.8843635  36.5836026
  79.2161411  57.2657631  37.2415821  79.8894906  58.0886227  33.9072694
  79.5261591  57.6991172  32.9562831  79.6786430  59.1564034  33.9663360
  80.9650379  57.9266955  33.9785205  79.1958992  53.8687124  33.6140908
  80.2880228  53.5525465  33.1409828  78.3461860  52.9782284  34.1502808
  77.5270084  53.3109288  34.6384999  78.5897415  51.5157588  34.1006465
  79.6279605  51.2995035  34.3525076  77.6807969  50.8020220  35.1113975
  77.6468000  51.4820949  35.9625405  76.6853198  50.7158576  34.6758506
  78.1541653  49.4225738  35.5791474  78.5530931  48.8845814  34.7191930
  79.2309212  49.5350138  36.6517480  78.8325650  50.0725229  37.5122683
  79.5430733  48.5371820  36.9599580  80.0883516  50.0758730  36.2512672
  76.9855077  48.5977756  36.1015957  76.2498057  48.4658707  35.3082212
  77.3458476  47.6222510  36.4281048  76.5231853  49.1139968  36.9429474
  78.3368843  51.0470885  32.6702908  79.0759591  50.1931723  32.2199203
  77.3603840  51.6467157  31.9722942  76.8275091  52.3703930  32.4332009
  77.0129254  51.3011745  30.5657667  76.7474197  50.2462324  30.4971880
  75.8197389  52.1379975  30.0934475  76.0259993  53.1664702  30.3897579
  75.8047961  52.0698682  29.0056814  74.4670714  51.7124963  30.6467542
  74.1014597  50.9023626  30.0157927  74.6355005  51.3381914  31.6565213
  73.4424657  52.8215249  30.6856607  73.6211975  53.4122859  31.5840789
  73.5906902  53.4465133  29.8050255  72.0207152  52.2988459  30.6999850
  71.8416954  51.7730340  29.7621287  71.9227556  51.6010340  31.5315868
  71.0280166  53.3907848  30.8516029  71.1183321  54.0372734  30.0808920
  70.0964464  53.0005869  30.8563508  71.1934582  53.8778694  31.7207846
  78.2037492  51.5672988  29.6421539  78.3168995  50.8502725  28.6277223
  79.0627436  52.5399293  29.9698752  78.8825472  53.0802642  30.8039417
  80.2388142  52.9107036  29.1259098  79.9837174  53.0933084  28.0820323
  80.9760178  54.1464228  29.7008828  81.2161640  53.9569583  30.7470823
  82.2513877  54.4189875  28.9320941  82.0119900  54.6090148  27.8858250
  82.7513064  55.2908502  29.3540389  82.9104324  53.5536219  29.0021054
  80.0954749  55.4015781  29.7848658  79.3627924  55.2163730  30.5703442
  80.7487592  56.2212251  30.0840278  79.3789212  55.7698855  28.5037578
  78.7250517  54.9508509  28.2041966  78.7838701  56.6687496  28.6651791
  80.1110191  55.9557008  27.7178792  81.1459925  51.6740758  29.0471506
  81.2849464  51.0192638  30.0937150  81.7175870  51.3552451  27.8768114
  81.5294776  51.9489065  27.0816508  82.5615667  50.1383080  27.6691211
  82.4800851  49.4858520  28.5384664  82.1121746  49.3640899  26.4351442
  82.0728041  50.0585448  25.5959293  82.8637242  48.5995135  26.2384305
  80.7591176  48.7079002  26.6106458  80.2529885  48.5226002  27.7363021
  80.1230684  48.3466451  25.6034258  84.0409336  50.5111382  27.5513624
  84.8426337  49.5809359  27.3233125  84.4013202  51.7848458  27.7041899
  83.6645110  52.4466138  27.9023684  85.7616941  52.2887128  27.5561157
  86.4767016  51.4678668  27.5006593  85.8382703  53.1114820  26.2219089
  85.4921619  52.4827245  25.4015601  85.1897448  53.9831727  26.3094883
  87.1607978  53.5332031  25.9654848  87.1840123  54.0334750  25.1464677
  86.1442419  53.1424910  28.7763804  85.3444823  53.9597874  29.2525643
  87.3707495  52.9198177  29.2746993  87.9099659  52.1175377  28.9819675
  87.9213587  53.7798826  30.3071933  87.2471926  53.7650544  31.1635690
  89.2939403  53.2623653  30.7549707  89.9826474  53.2798199  29.9102945
  89.6804364  53.8982668  31.5514317  89.1956032  52.2406924  31.1218678
  88.0097722  55.2430882  29.8250663  87.4925920  56.1417994  30.5081862
  88.6598234  55.5213318  28.6547228  89.1127316  54.8005521  28.1111694
  88.8000000  56.9229370  28.2132896  89.3093695  57.5034302  28.9824902
  89.5887259  57.0289194  26.8767642  89.1568337  56.3333419  26.1572216
  89.5194526  58.4416778  26.3197309  89.9516124  59.1378165  27.0385699
  90.0779489  58.4920450  25.3850407  88.4790561  58.7095860  26.1356129
  91.0526657  56.6264100  27.0836831  91.5151062  57.4124236  27.6807025
  91.0472890  55.6956263  27.6508799  91.8521516  56.4310596  25.7881915
  91.8583661  57.3616220  25.2206398  92.8761306  56.1477987  26.0317677
  91.3905472  55.6448258  25.1908159  87.4241240  57.5544167  28.1166628
  87.1326458  58.6200497  28.6821828  86.5370510  56.8549155  27.4526812
  86.7473434  56.0086760  26.9430194  85.1924538  57.3888161  27.3726666
  85.2209370  58.3955750  26.9558639  84.3135287  56.5107738  26.4733923
  84.7736135  56.3929308  25.4923039  84.1685153  55.5299791  26.9262862
  82.9687387  57.2023530  26.3221146  82.5823335  57.4235340  27.3170371
  83.1729378  58.1351943  25.7965560  81.9270013  56.4438742  25.5624638
  82.1067288  55.2737070  25.1576122  80.7770716  57.1126352  25.3864114
  80.0158254  56.6786087  24.8841897  80.6780126  58.0469850  25.7569234
  84.5813859  57.5486278  28.7649964  83.7919793  58.4820046  28.9845733
  84.9329036  56.6670159  29.7216476  85.5628555  55.8963871  29.5502088
  84.3188194  56.7813715  31.0493737  83.2548725  56.9846418  30.9277291
  84.4816413  55.5047046  31.8837690  84.4208952  54.6393190  31.2238321
  85.4563360  55.5214000  32.3714078  83.3687437  55.4138214  32.9577784
  83.6908177  55.9631312  33.8424410  82.4608570  55.8671136  32.5598210
  83.0997807  54.0188766  33.3201249  82.6498116  53.9666589  34.3115381
  82.4284466  53.5628126  32.5925154  84.3421027  53.2754189  33.3348049
  85.0924291  53.6056718  33.9247563  84.5424368  52.1930781  32.6087121
  83.6192087  51.7565504  31.7442519  82.7501827  52.2607376  31.6408643
  83.7955358  50.9248360  31.1990368  85.6810320  51.5242788  32.7496571
  86.3760698  51.8492842  33.4064630  85.8467119  50.6936988  32.1993974
  84.8992239  57.9836237  31.8085965  84.1610435  58.7628803  32.4422541
  86.1945230  58.2398386  31.6060917  86.7391742  57.6064720  31.0383760
  86.8793480  59.4085854  32.2101541  86.6857928  59.4428508  33.2822835
  88.3928047  59.2995241  31.9886872  88.4807396  59.1492946  30.9126771
  88.8563330  60.2475121  32.2617444  89.0985392  58.1571762  32.7221408
  88.4178706  57.3081672  32.7851866  90.3652672  57.7382962  31.9883719
  91.0466673  58.5867175  31.9253340  90.8477059  56.9249844  32.5304767
  90.1095117  57.4029031  30.9832843  89.4164526  58.5383531  34.1598161
  88.4915136  58.7705534  34.6877083  89.9174960  57.7063091  34.6545479
  90.0685076  59.4117599  34.1689812  86.3222950  60.6834601  31.5659891
  86.3824642  61.7217219  32.2457671  85.8339268  60.6410520  30.3127776
  85.8470324  59.7937793  29.7631809  85.3552838  61.8766154  29.6770088
  85.9615096  62.7215967  30.0034994  85.4578306  61.7600231  28.1353423
  86.5084034  61.5714691  27.9143366  84.8662798  60.8879087  27.8568030
  84.9694489  63.0017386  27.3218087  83.8803155  62.9593843  27.3315745
  85.3034895  63.8773832  27.8783746  85.4948969  63.1038555  25.7827696
  84.6137026  63.1869387  25.1466149  86.0862802  64.0161174  25.7043886
  86.2994649  61.9863968  25.3198309  85.7847925  61.1641334  25.0385933
  87.6345225  61.9507322  25.2710130  88.3951607  63.0096596  25.5759332
  87.9593965  63.8768281  25.8556269  89.4012048  62.9364120  25.5248486
  88.2345621  60.8275705  24.8684448  87.6774119  60.0263356  24.6082403
  89.2427532  60.7845387  24.8260459  83.9445696  62.1803080  30.1430113
  83.5278679  63.3407759  30.2365140  83.1627633  61.1577420  30.4499438
  83.3827394  60.1870097  30.2785127  81.8552419  61.4820873  31.0022408
  81.3921472  62.2902130  30.4360470  80.9664911  60.2639221  30.9195018
  81.1144477  59.7759794  29.9561119  81.2288606  59.5726732  31.7203996
  79.1752322  60.5533231  31.0690135  78.8176043  59.2782973  30.9452813
  81.9882773  61.9945876  32.4309570  81.2060178  62.8559670  32.8591155
  82.9916349  61.5005688  33.1641752  83.6086817  60.7943163  32.7892620
  83.1447512  61.8803359  34.5661585  82.2029154  61.7394156  35.0964284
  84.2233981  61.0036289  35.2356095  85.0022150  60.7807761  34.5063084
  84.6562520  61.5512661  36.0727660  83.5938012  59.6583544  35.7582559
  83.2099352  59.8432756  36.7615265  82.7628036  59.4486856  35.0847716
  84.5486125  58.4474928  35.7885939  85.7849245  58.6745649  35.5181463
  84.0947990  57.3244498  36.0957887  83.4257597  63.3613235  34.6630652
  82.6011894  64.1027765  35.2085544  84.5250716  63.8220249  34.0282176
  85.1780578  63.1768347  33.6069837  84.8464004  65.2547154  34.0012427
  85.1138477  65.5963819  35.0011602  86.0186485  65.5062123  33.0737591
  86.6605230  64.6612566  33.3230505  85.6397776  65.3869584  32.0587047
  86.8187107  66.7944395  33.1672524  87.6338835  66.7115480  32.4484179
  86.0109133  68.0804922  32.8832864  85.1957848  68.1643192  33.6020614
  86.6646084  68.9480715  32.9732291  85.6016421  68.0376733  31.8739480
  87.5028559  66.9540012  34.5262956  88.1852058  66.1199756  34.6903060
  88.0621951  67.8893674  34.5444898  86.7492982  66.9665058  35.3137556
  83.6404601  66.1062617  33.5957185  83.3930514  67.1608669  34.1973254
  82.8352889  65.6413895  32.6329873  83.0686308  64.8091176  32.1105179
  81.6156394  66.3710444  32.2702478  81.8343687  67.4348831  32.1780318
  81.0661817  65.8626330  30.9230470  81.7830976  66.0935734  30.1351401
  80.9662617  64.7813058  31.0171081  79.6926861  66.4778654  30.5663791
  79.5871344  67.7214792  30.4358854  78.7176244  65.7105960  30.3846583
  80.5217662  66.2731290  33.3273273  79.5759732  67.0785008  33.3108703
  80.6179251  65.3141437  34.2328877  81.3181651  64.5907453  34.1525251
  79.6701364  65.2410577  35.3437522  78.7324440  65.6367037  34.9535006
  79.4638264  63.7886374  35.7949423  80.4428321  63.3550372  35.9989990
  78.6023253  63.6914165  37.0327003  77.6229301  64.1244281  36.8292629
  78.4850715  62.6446453  37.3130972  79.0766978  64.2349530  37.8497915
  78.6982464  62.9247053  34.7902982  77.6484075  63.2153645  34.8284582
  79.0962046  63.1319291  33.7969267  78.8276423  61.3881564  35.0961957
  78.4294347  61.1800742  36.0892880  78.2661082  60.8208464  34.3539437
  79.8772328  61.0966393  35.0577587  80.1356511  66.0937749  36.5214803
  79.3445970  66.8527928  37.0968047  81.4240848  65.9849684  36.9043457
  82.0596143  65.3164356  36.4929270  81.9326906  66.8732685  37.9474929
  81.3683120  66.6973760  38.8632646  83.4117758  66.6498962  38.2366586
  83.9758358  67.2320532  37.5079413  83.6077202  67.0338917  39.2377845
  83.8509042  65.1513790  38.1584450  83.5219059  64.5895745  39.0326513
  83.4767934  64.6691181  37.2553572  85.7181303  65.1773515  38.1122125
  86.0402093  66.4263355  39.3302622  85.6256315  66.1150090  40.2890636
  87.1162782  66.5689824  39.4293997  85.5768851  67.3634906  39.0217622
  81.7773712  68.3127732  37.5310360  81.6323267  69.1895544  38.3769383
  81.8267712  68.5738237  36.2188633  82.0426770  67.8515089  35.5467432
  81.6243957  69.9370724  35.7304637  82.3436929  70.5991883  36.2124525
  81.8130109  70.0347590  34.1936750  81.3008286  69.2012747  33.7129749
  81.3543105  70.9723035  33.8795026  83.2882450  70.0325600  33.7432857
  84.2075359  69.9728206  34.5731847  83.5023480  70.0632036  32.4349299
  84.4482952  70.0634148  32.0809756  82.7184797  70.0861888  31.7984372
  80.2347116  70.4416942  36.1128352  80.0988802  71.4786587  36.7525254
  79.1769795  69.6922558  35.7897579  79.2963642  68.7925844  35.3465448
  77.7853668  70.1993440  36.0020730  77.7675506  71.2867776  35.9294791
  76.8532368  69.6227140  34.9344721  76.7758163  68.5538008  35.1332933
  75.8805207  70.0910764  35.0846720  77.3045162  69.8400050  33.4949064
  78.2413614  70.3962943  33.5259564  77.4799407  68.8582201  33.0551033
  76.2969107  70.5958034  32.6554459  75.3409720  70.0793667  32.7424711
  76.2065035  71.5990757  33.0718240  76.6890315  70.6889461  31.1951807
  75.8684539  71.1581812  30.6524363  77.5779487  71.3154430  31.1215131
  76.9726426  69.3587935  30.6075373  76.1489432  68.7782543  30.6753105
  77.2290501  69.4674035  29.6366825  77.7332627  68.9239997  31.1100416
  77.2371520  69.8929402  37.4008533  76.0164220  70.0161949  37.5760205
  78.1002520  69.5382024  38.3552334  79.0794695  69.4636195  38.1192890
  77.6833991  69.2206807  39.7507809  76.8089734  68.5699809  39.7424952
  78.8153467  68.5057249  40.4775606  79.7228029  69.1092251  40.4573128
  78.5369553  68.3037413  41.5118724  79.2582954  66.9125586  39.7587786
  80.2236600  66.6309126  40.6292067  77.3162767  70.5099518  40.4888521
  77.7157099  71.5818550  40.0062905  76.5746718  70.4203577  41.6016433
  76.1563117  69.5499850  41.8974904  76.3010504  71.6419144  42.4029151
  77.1546079  72.2938837  42.2172408  75.0284596  72.3324684  41.8710534
  74.1709658  71.6905788  42.0730001  74.8193489  73.6906449  42.5468406
  75.6762886  74.3332876  42.3449390  73.9156715  74.1570021  42.1544414
  74.7170348  73.5497512  43.6228431  75.2172805  72.6716418  40.4920780
  74.4270631  73.1018226  40.1572627  76.1529853  71.3177590  43.8860702
  77.0541423  70.6656400  44.4273474  75.0903335  71.8075037  44.5236251
  74.4964176  72.4480382  44.0165957  74.7617481  71.5156437  45.9432002
  75.6772750  71.2760871  46.4840535  74.1043813  72.6962822  46.6088064
  73.2268884  72.9829469  46.0292127  73.7968098  72.4069905  47.6136995
  74.9985174  73.7939020  46.6861784  74.5604725  74.5339981  47.1127627
  73.8581756  70.2807896  45.9998233  73.4304862  69.8499476  44.9224473
  73.6482310  69.6937566  47.1814021  74.1056778  70.0781470  47.9957029
  72.7934959  68.4841036  47.3556212  72.3870652  68.1628270  46.3966141
  73.6448781  67.3467857  47.9327532  74.3244335  67.8628874  48.6109441
  72.9990463  66.6800620  48.5041382  74.4564848  66.5287058  46.9211190
  73.8155347  66.2988734  46.0699663  75.6839592  67.2918126  46.4404769
  76.3256619  67.5216118  47.2910701  76.2347841  66.6813515  45.7249142
  75.3710781  68.2193422  45.9610035  74.8567763  65.1864422  47.5181828
  73.9612674  64.6267307  47.7881576  75.4319777  64.6195980  46.7861088
  75.4640468  65.3507468  48.4083094  71.6212406  68.7932533  48.2886191
  71.8591511  68.7840764  49.5121159  70.3999036  69.0020210  47.7707581
  70.2658094  69.0564602  46.7711809  69.2424533  69.1839405  48.6327187
  69.5152718  69.7679250  49.5117132  68.1503015  69.9279005  47.8735190
  67.3268037  70.1821288  48.5408408  68.5488520  70.8383277  47.4258810
  67.4238529  68.9818937  46.5205324  66.5673714  69.9240714  46.1362943
  68.7111390  67.8192847  49.1157938  68.8844901  66.7660514  48.4768829
  67.9947169  67.8642053  50.2318438  67.9013171  68.7351095  50.7347379
  67.3669634  66.6749927  50.7888455  68.0935499  65.8665343  50.8698826
  66.8285594  66.9828966  52.1721377  67.5962795  67.4895932  52.7569150
  66.5484134  66.0538634  52.6686411  65.3677442  68.0501197  52.0933432
  66.2452610  66.1876580  49.8680597  65.5443054  66.9733657  49.2162273
  66.1019740  64.8584857  49.8065636  66.6836991  64.2512427  50.3659841
  65.1676873  64.2458296  48.8593599  65.4381795  64.5326159  47.8431480
  65.2037801  62.7171848  48.9628566  66.2294497  62.3981816  48.7775514
  64.9184506  62.4486384  49.9799947  64.2626331  62.0205576  47.9659761
  63.2430468  62.3273020  48.1993265  64.5243553  62.3629021  46.9647749
  64.3613798  60.5051226  48.0247626  65.3786717  60.2057508  47.7725866
  64.1255578  60.1731002  49.0358256  63.3807809  59.8653347  47.0354870
  62.3758476  60.1916849  47.3032653  63.6270205  60.2300381  46.0382624
  63.4391813  58.3701288  47.0479165  63.2106208  58.0319655  47.9717701
  62.7761584  58.0017722  46.3809727  64.3701801  58.0675101  46.7993965
  63.7526769  64.7828129  49.0642707  63.0730091  65.1653069  48.0960991
  63.3220745  64.8676084  50.3354404  64.0163382  64.8488692  51.0687521
  61.9163241  64.8958414  50.7159423  61.3526236  64.1575472  50.1456242
  61.7906905  64.5620760  52.2106937  61.8129575  65.5147295  52.7398957
  60.8127576  64.0982376  52.3395390  62.8918158  63.6213602  52.7881034
  62.4827498  63.2075520  53.7098021  63.1164399  62.8108009  52.0948216
  64.1772601  64.3490784  53.1137107  64.2601737  65.5475108  52.9072663
  65.1944295  63.6258990  53.5589903  66.0690362  64.0766804  53.7869390
  65.0904245  62.6272413  53.6683850  61.2455870  66.2214177  50.3877682
  60.1926450  66.2261047  49.7374036  61.8834134  67.3515432  50.7275325
  62.7254551  67.2799846  51.2806555  61.3566242  68.7110858  50.4144014
  60.2889356  68.6203520  50.2146305  61.5529257  69.6548731  51.5977383
  60.9795054  69.2926843  52.4510310  61.2096952  70.6535051  51.3275031
  63.2611064  69.7737267  52.1846533  62.0021409  69.2610850  49.1314598
  61.3139787  70.0433813  48.4494663  63.2413633  68.8591152  48.7892359
  63.7191459  68.2474057  49.4354825  63.9604296  69.2800194  47.5489435
  64.9250521  68.7737162  47.5134525  63.1797197  68.9381478  46.2721765
  62.3997527  69.6941177  46.1812909  63.8847239  69.0432646  45.4475436
  62.5506727  67.5527316  46.2279990  63.3276695  66.8080092  46.0554721
  62.0630553  67.3539149  47.1823592  61.5229112  67.4408174  45.1288415
  61.8365002  67.1318957  43.9834824  60.2712403  67.6902109  45.4772733
  59.5367660  67.6318740  44.7864436  60.0559354  67.9377880  46.4324963
  64.2195873  70.7849640  47.5850011  64.4516722  71.3481112  46.4992987
  64.2730955  71.3996617  48.7730410  64.1465112  70.8454514  49.6078623
  64.3689816  72.8797153  48.9155309  64.4624260  73.3320179  47.9282166
  63.1223291  73.4599886  49.6062396  63.0293949  72.9478005  50.5639064
  63.3246112  74.5171412  49.7783164  61.8178573  73.3119987  48.8203997
  61.9297356  73.8552234  47.8820549  61.6907625  72.2497346  48.6117348
  60.5956231  73.8324897  49.5653284  59.4661330  73.7668875  49.0170315
  60.7603671  74.3014276  50.7112056  65.6430234  73.3635261  49.6027031
  66.1810575  74.3564771  49.0897221  66.1307835  72.7191817  50.6713726
  65.6895015  71.8648185  50.9802950  67.2409469  73.2415585  51.4497509
  67.3961841  74.3053216  51.2697269  67.0625093  73.0206315  52.9559581
  67.9758313  73.3423865  53.4563749  65.8800509  73.7951906  53.5135308
  64.9662382  73.4736274  53.0138877  65.7938780  73.6070718  54.5837105
  66.0306318  74.8612681  53.3435172  66.9326201  71.6267459  53.2428967
  66.8217060  71.5036877  54.1884944  68.5114251  72.5704296  50.9322375
  68.5799854  71.3465158  50.8656080  69.4805965  73.3596933  50.4618137
  69.2955411  74.3028642  50.1515194  70.8225179  72.8197059  50.2715307
  70.7535144  71.9474200  49.6215652  71.7994795  73.8274167  49.6401529
  72.7408683  73.2983823  49.4917986  71.3814363  74.1025953  48.6718468
  72.0496693  75.0911669  50.4648453  71.0826847  75.5416495  50.6886912
  72.5267199  74.7761526  51.3929013  72.9342143  76.1120241  49.7607191
  73.3100858  77.1361600  50.3855288  73.2671568  75.8869319  48.5777163
  71.3160728  72.2859117  51.6226503  70.9846280  72.8213489  52.6885304
  72.0994424  71.2102149  51.5906090  72.3588892  70.7531215  50.7281403
  72.5696244  70.6326696  52.8508246  72.2773786  71.2611809  53.6920529
  72.0530072  69.1829855  53.0827181  72.5793041  68.5188872  52.3970904
  72.2888076  68.7102156  54.5450162  71.7624007  69.3736030  55.2312476
  71.9137489  67.6936808  54.6637129  73.3558160  68.7314564  54.7666939
  70.5638653  69.0505472  52.7238983  70.4053938  69.6140315  51.8044022
  70.3724627  67.9934992  52.5391987  69.6222755  69.5528796  53.7895496
  69.8127784  70.6100504  53.9744776  68.5927125  69.4226394  53.4561779
  69.7798491  68.9895192  54.7092754  74.0938078  70.6381861  52.8700771
  74.7026825  70.6925317  53.9408670  74.7180428  70.4947540  51.6913528
  74.2036405  70.2325147  50.8626670  76.1646091  70.6485218  51.5874423
  76.4476035  71.6115542  52.0123918  76.9057616  69.5496850  52.3363026
  76.5814141  69.5293321  53.3767278  76.6005907  68.2305387  51.6920938
  76.9250999  68.2499701  50.6517016  77.1271616  67.4365486  52.2216236
  75.5273515  68.0447884  51.7339844  78.3165247  69.7816193  52.2824333
  78.7738953  69.0837307  52.7571585  76.5527807  70.6629554  50.1152075
  75.6993295  70.6403836  49.2116741  77.8686135  70.7313088  49.8758859
  78.5514991  70.6707899  50.6175760  78.3443395  70.9252281  48.5140191
  77.5693445  70.6154242  47.8129460  78.7145998  72.3956255  48.2221123
  79.1015133  72.4553281  47.2048445  77.5252718  73.3133345  48.3621195
  77.1380678  73.2545200  49.3793282  77.8292047  74.3380280  48.1482804
  76.7480798  73.0114029  47.6600436  79.7364250  72.7944504  49.1459873
  79.9798028  73.7079794  48.9791567  79.5668148  70.0689030  48.2353783
  80.2182201  69.5411527  49.1461235  79.9097545  70.0108808  46.9406406
  79.3271260  70.4631511  46.2506443  81.0522211  69.2307145  46.4770797
  80.9273816  68.1880425  46.7692260  81.1741296  69.3004693  44.9510625
  81.9239344  68.5702959  44.6465319  80.2072250  69.0247201  44.5301611
  81.5774456  70.6928908  44.4386697  80.8506236  71.4111471  44.8180620
  82.5623487  70.9248718  44.8439508  81.6228060  70.7718350  42.9223451
  82.2786742  69.9865886  42.5464141  80.6168558  70.6231564  42.5298425
  82.1505507  72.1377875  42.4701014  83.1316616  72.2826765  42.9223504
  82.2511748  72.1138741  41.3850197  81.2498318  73.2654634  42.8621556
  81.1568016  73.2880636  43.8676079  81.6436517  74.1382265  42.5407674
  80.3407854  73.1316202  42.4428468  82.3333289  69.6617153  47.1420894
  83.2028165  68.8246285  47.4177542  82.4597626  70.9628780  47.4187283
  81.7157524  71.5891564  47.1461049  83.6720579  71.5386740  48.0060452
  84.5549194  71.2218467  47.4508198  83.5750659  73.0837893  47.9421593
  82.8541372  73.4458267  48.6751599  84.5630438  73.4783603  48.1794640
  83.1494460  73.6118886  46.5094958  81.9591142  73.8355980  46.2043821
  84.1333843  73.8378954  45.6700672  83.9319389  74.1757364  44.7398075
  85.0871513  73.6728606  45.9584988  83.9294098  71.0364236  49.4308541
  85.0841505  71.0436587  49.8816796  82.8804479  70.6255254  50.1595395
  81.9620962  70.6235053  49.7391522  83.0078321  70.1962086  51.5829051
  83.7561499  70.8097699  52.0845645  81.6765575  70.3495742  52.3194592
  80.9957500  69.6027184  51.9110393  81.8645497  70.1326848  53.3709904
  81.0506203  71.7300030  52.1908476  80.6342319  71.7901428  51.1853105
  80.2425266  71.7707792  52.9212043  81.9971174  72.8971327  52.4174433
  82.4666299  73.0603915  53.5609937  82.2623614  73.6359331  51.4505029
  83.4671196  68.7340388  51.6612146  83.9532555  68.3437139  52.7331219
  83.3946950  67.9782992  50.5644893  83.0573450  68.3871441  49.7047567
  83.7229487  66.5239612  50.5744629  83.1735586  65.9802484  51.3429980
  83.4604664  65.8757426  49.1994226  83.8818898  66.5211049  48.4287020
  84.0890292  64.4912607  49.1015973  83.6677349  63.8451520  49.8717631
  83.8828370  64.0666497  48.1191051  85.1668267  64.5701164  49.2438417
  81.9590689  65.8326111  48.8941667  81.5296111  65.0620594  49.5344142
  81.5528535  66.8046458  49.1738759  81.6146355  65.5392050  47.4538489
  82.0201496  64.5670529  47.1735305  80.5313339  65.5287861  47.3336476
  82.0433943  66.3096386  46.8129918  85.1751488  66.3485560  51.0074699
  85.9830735  67.2158893  50.6435668  85.4839905  65.3050453  51.7899674
  84.7285961  64.7317962  52.1376224  86.8679662  64.9817048  52.2191564
  87.5564903  65.1807405  51.3979265  87.2891537  65.8223915  53.4243684
  88.3739749  65.9266291  53.4442841  86.8307643  66.8097330  53.3683674
  86.8886653  65.2365728  54.7508078  85.5639424  65.2482583  55.1501441
  84.8129663  65.6843238  54.4913712  85.1870796  64.7133260  56.3731940
  84.1386528  64.7197164  56.6712896  86.1347045  64.1758621  57.2081392
  85.8416449  63.7670860  58.1751543  87.4525831  64.1534393  56.8243549
  88.2024386  63.7228117  57.4879638  87.8310690  64.6761832  55.5972053
  88.8771162  64.6480838  55.2920894  86.9469828  63.4895033  52.5362004
  85.9027946  62.9474087  52.9523850  88.1048863  62.8438027  52.3336637
  88.9125762  63.3476414  51.9961983  88.2242684  61.4171199  52.5421540
  87.2411937  60.9555995  52.4490838  89.1623462  60.7788660  51.5182038
  88.7138872  60.8805104  50.5299467  90.1125277  61.3124254  51.5420676
  89.3841386  59.4065475  51.7973387  89.9756511  59.0373296  51.1374970
  88.7251733  61.0958529  53.9404873  89.7106437  61.6793203  54.3971380
  88.0341062  60.1606471  54.6051272  87.1260618  59.8865731  54.2580850
  88.5109353  59.5578107  55.8373038  89.4126141  60.0695433  56.1737621
  87.4481693  59.6668723  56.9343316  86.5197112  59.8655726  56.3989973
  87.3698879  58.7121900  57.4544794  87.6978999  60.7778388  57.9471915
  88.0925049  61.6477108  57.4221101  86.4020731  61.1629944  58.6721336
  86.0070912  60.2936864  59.1978633  86.6086233  61.9576413  59.3890534
  85.6684104  61.5117267  57.9453426  88.7618025  60.4300869  58.9934820
  89.7096329  60.2269969  58.4950128  88.8849448  61.2680529  59.6795944
  88.4487771  59.5474646  59.5512381  88.8952767  58.1047215  55.6418568
  89.3004728  57.4430950  56.6150616  88.7500182  57.5702688  54.4164992
  88.4030010  58.1364239  53.6554822  89.0536187  56.1714382  54.1531485
  89.6154105  55.7597918  54.9916212  87.7914167  55.3573305  53.9706414
  88.0503259  54.3060474  53.8446691  87.1537108  55.4714133  54.8472349
  87.1042598  55.8113328  52.8283794  86.3029773  55.2957997  52.7110262
  89.9122386  56.0203231  52.9115217  89.8313542  56.8295993  51.9858404
  90.7355538  54.9669789  52.8986040  90.8289318  54.3319016  53.6783839
  91.5801433  54.7562466  51.7320700  92.1401480  55.6624224  51.5011166
  92.5965781  53.6010940  52.0270644  93.1746904  53.8381003  52.9202124
  92.0575035  52.6663620  52.1812554  93.5394117  53.4538161  50.8351802
  92.9465481  53.1105004  49.9873901  93.9488608  54.4399242  50.6159902
  94.6695398  52.4839852  51.0842651  95.3066907  52.8062690  51.9078371
  94.3035013  51.4764166  51.2815487  95.4709161  52.4614474  49.8484746
  95.2038905  51.7912878  49.1415922  96.4781830  53.2668266  49.5998729
  97.1335256  53.1420898  48.4339862  96.8464150  52.4375634  47.7696745
  97.9104118  53.7533916  48.2269654  96.8491250  54.2074698  50.4333873
  96.3523813  54.3311080  51.3040533  97.6300428  54.8044520  50.2012699
  90.7103410  54.4404240  50.5162538  90.9993799  54.8749229  49.3896877
  89.6244623  53.6906233  50.7285069  89.4208594  53.2973185  51.6362275
  88.7712163  53.3124239  49.6012686  89.4022196  52.9518734  48.7889034
  87.7635566  52.2078261  49.9689884  88.3423253  51.3830909  50.3848464
  87.1148589  52.6214442  50.7411356  86.9105303  51.6966208  48.8069883
  86.3092408  52.5288886  48.4410891  87.5986117  51.3748830  48.0252415
  85.9968790  50.5390572  49.1864575  85.2392908  50.0413620  48.3157562
  86.0418813  50.1129735  50.3602639  88.0768384  54.5452071  49.0117680
  87.8531108  54.6362235  47.7886446  87.7049507  55.5016423  49.8588696
  87.7782386  55.3858565  50.8595304  87.1745096  56.7586610  49.3456473
  88.0459465  57.3837668  49.1508658  86.6908753  56.5062008  48.4020048
  86.1876984  57.5378335  50.2182038  85.5850269  57.0254141  51.1390542
  85.9516844  58.7923115  49.8793582  86.3512053  59.5001162  48.7362504
  86.3525926  58.8051567  47.8965304  87.3639095  59.8656024  48.9063952
  85.3552840  60.6234907  48.5584879  84.5070279  60.2980730  47.9562722
  85.8250797  61.4866808  48.0870048  84.9298039  60.9487854  49.9957687
  83.9357943  61.3810738  50.1105328  85.6653898  61.6000369  50.4678751
  84.9708750  59.5707179  50.6355859  85.3784252  59.6936743  51.6390215
  83.6237925  58.9714992  50.7221346  82.7889749  59.4964713  51.4685915
  83.3249557  58.0620808  49.8214128  84.0564727  57.7995051  49.1764040
  82.0250135  57.4378326  49.6771167  81.3238442  57.8725941  50.3894672
  81.4951798  57.6526165  48.2916861  81.5448678  58.7223355  48.0883843
  82.1562500  57.1219904  47.6064692  80.1217683  57.1842584  48.1046287
  79.9966221  56.7889046  47.0965936  79.8912687  56.4050741  48.8311574
  79.0222337  58.5325697  48.3362044  79.0582917  59.4583463  46.8133849
  78.7326768  58.8202530  45.9918553  78.3905317  60.3161530  46.8931662
  80.0737502  59.8055489  46.6226085  82.1975713  55.9628449  49.9741676
  83.2000831  55.3399971  49.6099673  81.2426934  55.4115476  50.6808914
  80.3920869  55.8861965  50.9478677  81.4289798  54.0404959  51.1124556
  81.7423109  53.4372029  50.2604226  82.4576092  53.8701940  52.2387295
  82.1527836  54.4612761  53.1023285  82.5171757  52.8191222  52.5212188
  83.4344355  54.2090644  51.8936547  80.0942046  53.5169097  51.6054035
  79.1692471  54.2851874  51.9967601  79.9824269  52.1998139  51.4736485
  80.7456224  51.6973268  51.0433708  78.8498339  51.4429290  51.9572622
  77.9274154  52.0226334  51.9917020  78.6089597  50.1917251  51.1140817
  79.5212120  49.5962615  51.0777667  77.8079615  49.6015778  51.5593101
  78.3256234  50.4834614  50.1027906  79.1918183  50.9994065  53.3590413
  80.1956552  50.2932750  53.5522502  78.3536553  51.3479406  54.3199169
  77.6612834  52.0648843  54.1564784  78.4319549  50.7511181  55.6515573
  79.1476112  49.9291442  55.6344042  78.8853473  51.7780759  56.7118662
  78.1907765  52.6175315  56.7432485  78.8735531  51.2613411  57.6715255
  80.2828276  52.2898249  56.4316293  81.3806751  51.5177766  56.7433878
  81.2334783  50.5509232  57.2246642  82.6268278  51.9466275  56.4594310
  83.4996527  51.3382779  56.6964735  82.7902419  53.2036311  55.8507154
  84.0610875  53.6731631  55.5492568  84.7564340  53.0600753  55.7986888
  81.7009460  53.9893127  55.5388871  81.8228249  54.9694534  55.0778337
  80.4671427  53.5234833  55.8152228  79.5899928  54.1160553  55.5552872
  77.0692216  50.1885983  55.9886798  76.0408664  50.6603120  55.4723731
  77.0811210  49.1496135  56.8196720  77.9759729  48.8120776  57.1443394
  75.8731039  48.4381406  57.2476893  74.9850583  48.8118099  56.7379390
  76.0018333  46.9276985  56.9693377  76.3611990  46.7957012  55.9487828
  76.9873817  46.2431261  57.9580910  76.6284147  46.3743105  58.9788918
  77.0513375  45.1792009  57.7298954  77.9742765  46.6952803  57.8596186
  74.6526728  46.3104419  57.0603939  73.9927737  46.7678541  56.3232308
  74.7280879  45.2406527  56.8655524  74.2464190  46.4695491  58.0592650
  75.6288023  48.6957209  58.7306877  76.5808895  48.7219888  59.5178884
  74.3567276  48.8853127  59.0966247  73.6752503  49.0114641  58.3619317
  73.9184665  49.0236364  60.4719821  74.7081155  49.4431052  61.0953596
  72.7177496  49.9827004  60.4889240  72.5560549  50.3262421  61.5106545
  72.9705885  50.8332562  59.8558937  71.4335217  49.3635864  59.9775166
  71.3281391  48.1642280  59.7860876  70.4305598  50.2113289  59.7714800
  69.5443326  49.8670679  59.4306200  70.5593516  51.1958040  59.9567428
  73.6089269  47.6815642  61.1328098  73.8113917  46.6252459  60.5355747
  73.2033101  47.6635997  62.3998418  73.3656338  48.6595648  63.4082616
  72.4376538  49.2254152  63.4905213  74.1730524  49.3282108  63.1097875
  73.6903836  47.8904070  64.6688118  73.4043772  48.4583281  65.5541169
  74.7537577  47.6556937  64.7162086  72.8537536  46.6132149  64.5285208
  71.8095591  46.7134896  64.8246655  73.3071144  45.7844301  65.0722850
  72.9446220  46.3630537  63.0319870  73.8237898  45.7415353  62.8620539
  71.7135908  45.6525260  62.5011975  71.6878232  44.4149957  62.5020947
  71.6354769  45.8343666  61.2988975  72.1668449  46.4382222  60.6880736
  70.4927182  45.1231343  60.7431988  70.4288951  44.1195785  61.1637955
  69.1997508  45.8858376  61.0907876  69.2362496  46.8941292  60.6783374
  68.3269678  45.3644348  60.6977366  68.9816722  46.0342416  62.5711642
  69.5360026  47.0913117  63.2833628  69.1409857  46.9297040  64.5406351
  69.4746759  47.6678943  65.2698983  68.3727803  45.8411247  64.6804052
  67.9385810  45.4889330  65.5215543  68.2697684  45.2558950  63.4266234
  67.6913826  44.3409917  63.2980818  70.6567820  44.8885512  59.2225040
  69.6930590  44.5806185  58.5138817  71.1125444  45.1908226  59.4721828
  71.8333575  45.7145903  59.9477828  71.4329600  44.5834218  58.1997583
  72.4845852  44.2987152  58.2333098  70.8177075  43.6886931  58.1047627
  71.1962992  45.4890769  56.9707491  71.3399047  45.0399388  55.8363865
  70.8461210  46.7322688  57.1885795  70.6460753  47.0305131  58.1325770
  70.6204397  47.6642628  56.1168462  70.2958281  47.1431349  55.2162063
  69.5414316  48.6255943  56.5308672  68.7499920  48.0217153  56.9747733
  69.9339115  49.3153479  57.2780617  68.9964000  49.3909655  55.3938790
  69.7104043  50.4677333  54.8452999  70.6892053  50.7205126  55.2529159
  69.1802979  51.2121999  53.7890534  69.7366669  52.0520439  53.3728594
  67.9405461  50.8720872  53.2638937  67.4297283  51.5991249  52.2124621
  68.0112875  52.3085116  51.9293382  67.2135212  49.7886345  53.8198740
  66.2400413  49.5162871  53.4121189  67.7489915  49.0679677  54.8952985
  67.1813281  48.2507404  55.3402681  71.9137145  48.3383821  55.7150934
  72.7797576  48.5721249  56.5416965  72.1159008  48.4328786  54.4156138
  71.3826909  48.1401666  53.7856756  73.3679176  48.9132016  53.8433859
  74.1803207  48.9170790  54.5700807  73.8108964  48.1040224  52.6168930
  72.9575749  47.9281962  51.9618917  74.8766613  48.8973314  51.8624264
  75.7305542  49.0731595  52.5166835  75.1998024  48.3324048  50.9880476
  74.4610339  49.8531908  51.5435405  74.2924184  46.7067219  52.9892291
  73.4851547  46.1621696  53.4790150  74.5948176  46.1738378  52.0877365
  75.1421407  46.7834342  53.6676007  73.1585840  50.3665369  53.4649181
  72.2829581  50.6737183  52.6328142  73.9474348  51.2548690  54.0920715
  74.5784303  50.8963117  54.7944822  73.9333296  52.6980475  53.8430515
  73.0331674  53.0015800  53.3085655  73.9487965  53.3875020  55.2011215
  74.6729682  52.9231913  55.8705169  74.2078553  54.4365106  55.0577013
  72.6398471  53.3651243  55.9084707  71.4519570  53.6855555  55.2811630
  70.4654116  53.6217258  56.1593964  69.4366837  53.8250919  55.8619740
  70.9803359  53.2922673  57.3315210  70.4651036  53.2030677  58.1956269
  72.3313709  53.0882118  57.1954667  72.9223933  52.7630727  58.0516666
  75.1296631  53.1813123  52.9975769  76.2840822  52.7407524  53.2097006
  74.8613586  54.1523096  52.1013230  73.9112093  54.4560658  51.9430576
  75.9325548  54.7635720  51.2975054  76.8298559  54.1507112  51.3832476
  75.5603437  54.8793934  49.8223277  74.5541782  55.2925786  49.7515592
  76.2654342  55.5567492  49.3405222  75.6025602  53.5243604  49.1272153
  76.5576837  53.0537472  49.3603744  74.7951973  52.9531391  49.5854407
  75.4120979  53.5554328  47.6495940  74.2518285  53.8272904  47.2512922
  76.4391692  53.3493079  46.9030995  76.2563023  56.1362394  51.8489813
  75.4631264  57.0879560  51.7217939  77.4348436  56.2563620  52.4224278
  78.1454100  55.5600992  52.2480355  77.7568646  57.3655328  53.3165573
  76.8799878  57.9824483  53.5130302  78.3119056  56.8308825  54.6409053
  79.1467487  56.1632598  54.4277918  78.7661229  57.9173997  55.4869107
  77.9316658  58.5852403  55.7008520  79.1557023  57.5127652  56.4210410
  79.5529269  58.4721072  54.9756980  77.2388533  55.9974404  55.3600841
  77.1044457  55.0651075  54.8116401  77.5932815  55.7780595  56.3672346
  75.9013178  56.7396395  55.4402346  75.5460044  56.9589694  54.4333847
  75.1699646  56.1169294  55.9554567  76.0348409  57.6719230  55.9889777
  78.7909674  58.2463108  52.6441681  79.9524498  57.8277702  52.4779979
  78.4037819  59.4919850  52.3228628  77.4237138  59.7299444  52.3770947
  79.3450456  60.5226822  51.8792728  80.2330505  60.0564168  51.4524906
  78.7009174  61.4005606  50.8198153  78.5283333  60.7271285  49.9802897
  77.7477736  61.7997596  51.1665965  79.6004479  62.5486690  50.3735913
  79.9923214  63.1052366  51.2249247  80.7508444  61.8878005  49.6268005
  80.3597705  61.3313864  48.7750004  81.4426300  62.6526327  49.2738627
  81.2749319  61.2055584  50.2961125  78.9520377  63.6310597  49.5513117
  78.1466115  64.0902583  50.1244825  79.6936501  64.3882594  49.2968302
  78.5458942  63.1991596  48.6366485  79.7779427  61.3927675  53.0548942
  78.9643110  62.1534052  53.5730466  81.0723461  61.3325757  53.4209675
  81.6613917  60.6184203  53.0171028  81.6534171  62.2258274  54.4239365
  80.9683672  62.3390326  55.2641689  82.9636765  61.6165206  54.9384495
  83.4538742  62.3562424  55.5713935  82.7388509  60.3558137  55.7241140
  82.2490727  59.6154054  55.0916486  83.6970009  59.9642660  56.0657836
  82.1071321  60.5718168  56.5857257  83.8280842  61.2763631  53.8576905
  84.6395283  60.8978186  54.2039026  81.9219559  63.6511950  53.9202420
  82.3963706  63.8494653  52.8034718  81.6524211  64.6456536  54.7767838
  81.1575656  64.4095556  55.6250026  81.9758176  66.0545026  54.5297832
  82.8662346  66.1714279  53.9120575  80.8007869  66.7811392  53.8434188
  81.1648687  67.7221015  53.4309461  80.2083820  65.9296742  52.7224649
  79.8436425  64.9886732  53.1342697  79.3820856  66.4660726  52.2559764
  80.9760163  65.7257159  51.9759797  79.7328139  67.1488442  54.8777847
  80.1673252  67.8050846  55.6318740  78.9079484  67.6612781  54.3827009
  79.3620211  66.2422333  55.3559795  82.3517461  66.7745984  55.8341086
  82.1998176  66.2369661  56.9386244  82.8446674  68.0302856  55.6817430
  82.8216492  68.4488659  54.7628524  83.3314076  68.8362908  56.7974673
  83.7302950  68.1697487  57.5621304  84.4336764  69.8202671  56.3809052
  84.0937262  70.2893027  55.4575749  84.4640987  70.5649392  57.1762906
  85.7889273  69.2585825  56.1789365  86.1878659  68.1206243  56.8588463
  85.4958021  67.6359711  57.5475105  87.4460863  67.6016091  56.6706400
  87.7686973  66.7162796  57.2185595  88.3099182  68.2157098  55.7723768
  89.5687115  67.7085338  55.5599321  89.7509693  66.9253123  56.0842849
  87.9255024  69.3376776  55.0808742  88.6026565  69.8152127  54.3726913
  86.6732925  69.8572079  55.2894424  86.3586614  70.7528258  54.7537411
  82.2889619  69.7523016  57.3948493  82.3720195  70.0966487  58.5675485
  81.4141544  70.2818318  56.5532944  81.4287233  69.9970191  55.5843936
  80.4761675  71.3174705  56.9529807  80.2766844  71.2190526  58.0200419
  81.0128603  72.7273015  56.6831174  81.9777439  72.8137634  57.1827405
  81.1515613  72.8265660  55.6065447  80.0752742  73.8391954  57.1835955
  79.1675868  73.8063754  56.5809951  79.8284607  73.6244096  58.2233321
  80.6973690  75.2213538  57.0864044  81.6621360  75.2122681  57.5935939
  80.8422946  75.4717072  56.0354909  79.7871812  76.2670383  57.7394429
  78.8458433  76.2796247  57.1900567  79.6032878  75.9539843  58.7671975
  80.3844821  77.6377939  57.7356073  80.5545614  77.9282390  56.7833392
  79.7457792  78.2845587  58.1758956  81.2565451  77.6264426  58.2449955
  79.1926459  71.0281673  56.2043113  79.1755954  71.0500663  54.9684857
  78.1296255  70.7513478  56.9288439  78.2262448  70.5683910  57.9174241
  76.8076790  70.6408924  56.3332954  76.8416197  70.8879735  55.2722119
  76.2432692  69.2218951  56.4886958  76.1946209  68.9634918  57.5465054
  75.2427187  69.1791438  56.0583804  76.8911148  68.5139973  55.9717084
  75.9166731  71.6754008  56.9959332  75.8963304  71.7856926  58.2234917
  75.1877815  72.4255268  56.1866126  75.2833952  72.3020608  55.1887581
  74.2724086  73.4449148  56.6699082  74.5673916  73.7770912  57.6652690
  74.3027053  74.6422935  55.7281602  74.2212533  74.3147823  54.6917234
  73.4872977  75.3284824  55.9569727  75.8176781  75.6151756  55.8275190
  75.4686227  76.5103220  54.9078607  72.8449032  72.9017139  56.7702833
  72.4703384  71.9360200  56.1015212  72.0563436  73.5186735  57.6552626
  72.4840185  74.1645629  58.3033524  70.6198399  73.2512726  57.7858428
  70.1918836  73.9442613  58.5102178  69.8813993  73.4221990  56.4457627
  70.0554814  72.5642742  55.7963324  68.8212333  73.4816766  56.6919546
  70.2826947  74.6994849  55.6904384  71.3698994  74.7838546  55.1105267
  69.3820559  75.6693676  55.6447538  69.5952262  76.5299218  55.1609101
  68.4861804  75.5440054  56.0939666  70.3399718  71.8547543  58.3529516
  69.3639786  71.2144292  57.9520088  71.1504812  71.3991029  59.3143091
  71.9200474  71.9693716  59.6347163  70.9889711  70.0651180  59.8911615
  70.0418907  69.6349155  59.5654873  72.1305590  69.1391557  59.4392092
  72.9968386  69.6914431  59.8034034  72.0224292  68.2166007  60.0095601
  72.3263015  68.8020656  57.9528623  72.4015309  69.7273090  57.3815777
  73.5971147  67.9875611  57.7675782  73.5224354  67.0618875  58.3382359
  73.7281665  67.7529883  56.7112157  74.4528895  68.5631840  58.1202936
  71.1194329  68.0676581  57.3514051  70.2318007  68.6942497  57.4385338
  71.3107410  67.8537396  56.2998627  70.9577999  67.1328986  57.8882464
  70.9406525  70.1018246  61.4132426  71.9723243  70.2254180  62.0777402
  69.7492121  69.9467901  61.9678084  68.8928763  69.9631490  61.4325322
  69.6577430  69.7909646  63.4061313  70.2895088  70.5318112  63.8961491
  68.2267290  69.9838329  63.8794069  67.6342488  69.1643929  63.4724861
  68.1689112  69.9677884  64.9677541  67.6565498  71.2729445  63.3906575
  66.8382195  71.2883739  62.4787916  68.1275883  72.3815982  63.9735982
  67.7809713  73.2857462  63.6864175  68.8275646  72.3091307  64.6980858
  70.1635204  68.4150102  63.8133961  70.4152220  67.5332867  62.9775852
  70.3288247  68.2552553  65.1118836  70.1273964  69.0236671  65.7356378
  70.8419440  67.0286687  65.6790026  70.9673525  66.2851883  64.8918502
  72.1817912  67.2623934  66.3410437  72.0836183  68.2964820  66.6713800
  72.2563421  66.6092874  67.2105233  73.4442492  67.1178368  65.4842204
  73.3657348  66.1932936  64.9122448  73.6159215  68.2737100  64.5442717
  73.6949784  69.1986210  65.1155758  74.5222490  68.1323614  63.9554663
  72.7554890  68.3314613  63.8776224  74.6080576  66.9397615  66.4817495
  74.4358400  66.0494834  67.0866011  75.5437417  66.8304486  65.9334366
  74.6678278  67.8133879  67.1308283  69.8335694  66.4683515  66.6801576
  69.2054964  67.2078976  67.4457108  69.6382070  65.1584628  66.6412069
  70.1198315  64.5983139  65.9524615  68.7154680  64.4972585  67.5405664
  68.2583277  65.2290983  68.2065488  67.6139231  63.7408436  66.7764668
  68.0247786  63.2717352  65.8824671  67.0599954  62.6611409  67.7103416
  66.6485184  63.1295500  68.6044222  66.2749329  62.1048733  67.1981463
  67.8616665  61.9793322  67.9941719  66.5068436  64.6932140  66.3132793
  66.2225134  65.3033048  67.1706278  66.9301257  65.3318141  65.5379590
  65.2638902  63.9728957  65.7619958  64.8397550  63.3344161  66.5369494
  64.5228204  64.7103641  65.4536858  65.5473681  63.3629233  64.9042814
  69.5270902  63.5498076  68.3970524  70.1404131  62.6124424  67.8742337
  69.5327993  63.7889652  69.7054993  69.2096027  64.6740164  70.0692679
  69.9995689  62.7938776  70.6412155  69.2024883  62.5914764  71.3566142
  70.2319318  61.8829343  70.0895914  71.2201185  63.2376667  71.3847246
  71.3959332  64.4612071  71.6619123  72.0666500  62.3050715  71.7405964
  71.8834306  61.3338900  71.5324222  73.2694999  62.6340132  72.4682689
  73.5972331  63.6357791  72.1905005  73.0291098  62.5970965  74.0156114
  72.2328434  63.2923497  74.2814723  72.7476803  61.5892557  74.3208234
  74.3168672  63.0028199  74.7271812  75.0845208  62.2777583  74.4568214
  74.6012744  63.9875936  74.3564585  74.1781799  63.0518867  76.2308847
  73.4537987  63.8023280  76.5474423  73.9006893  62.0824595  76.6447800
  75.5043379  63.4260251  76.7530059  76.2488775  63.5339377  76.0791253
  75.7670907  63.6550550  78.0191801  77.0214818  63.9867059  78.3699148
  77.7390759  64.0549447  77.6624530  77.2408003  64.1661771  79.3393420
  74.8460175  63.6038292  78.9507477  73.8927153  63.3810934  78.7023454
  75.0940335  63.7873418  79.9124700  74.2416189  61.5721261  71.9830489
  73.8849777  60.3980168  71.9287970  75.4748622  61.9357437  71.7171744
  76.1739561  63.1227119  72.0839240  76.4961278  63.0291686  73.1210138
  75.4935814  63.9691305  71.9903035  77.3358312  63.2078654  71.1204921
  78.1566218  63.7801985  71.5527382  77.0274580  63.6680869  70.1817677
  77.7274949  61.7396800  70.9079428  78.3651878  61.3169432  71.6843064
  78.1959811  61.5942526  69.9345615  76.3655989  61.0651640  70.9339285
  75.9905041  61.0574296  69.9105310  76.4495164  59.6410400  71.4520083
  76.3553211  59.3916782  72.6536426  76.6583441  58.7208109  70.5073437
  76.6206921  59.0078646  69.5397271  76.8889272  57.3224343  70.7996199
  77.2547275  57.2304139  71.8222741  75.6135871  56.4823750  70.6578424
  74.9184753  56.7696308  71.4467676  75.1659422  56.6910755  69.6861644
  75.9013778  55.0754599  70.7610673  75.0874779  54.5747690  70.6690056
  77.9699042  56.7509812  69.8863515  78.2314653  57.2424945  68.7642934
  78.5529944  55.6312841  70.3619460  78.2301812  55.2288113  71.2302240
  79.6563311  54.9799510  69.6662282  79.7203802  55.3739163  68.6519362
  80.9697643  55.2692644  70.3852447  81.7899556  55.1837820  69.6724479
  80.9571335  56.6547632  70.9707646  80.1374354  56.7408714  71.6840528
  81.9023529  56.8432788  71.4798041  80.8224440  57.3855566  70.1733310
  81.0695415  54.3027486  71.4380471  81.8851597  54.4426883  71.9246518
  79.5345841  53.4639775  69.5544297  80.5401807  52.8066783  69.2002089
  78.3712125  52.8905289  69.8751668  77.7134554  53.3487554  70.4895636
  78.0796028  51.5309487  69.4419063  78.8384607  50.8667405  69.8555020
  76.6935169  51.0355926  69.8930538  76.6736592  51.1112143  70.9802457
  75.9626351  51.7235787  69.4680985  76.3493417  49.6043935  69.4753043
  76.3755117  49.5589158  68.3865676  77.1251972  48.9571446  69.8842252
  74.9863837  49.1376631  69.9700256  74.5926049  47.9781946  69.6868011
  74.3052669  49.9297291  70.6555162  78.2623753  51.4570427  67.9290100
  77.9340918  52.4062479  67.2045340  78.8196898  50.3452041  67.4548852
  79.3336171  49.7252465  68.0645003  78.7488781  50.0173679  66.0359859
  79.4066953  49.1770943  65.8139137  77.3037785  49.6274515  65.6536859
  76.8143747  49.1171188  66.4832301  76.7519147  50.5352449  65.4098468
  77.1871306  48.7216136  64.4637039  77.5312627  47.3800410  64.4901044
  77.3412102  46.8690150  63.2837120  77.5672649  45.8199739  63.0926337
  76.8744062  47.8180954  62.4837837  76.6268804  47.7133659  61.5102013
  76.7787928  48.9854289  63.1991603  76.4219013  49.8940830  62.7143124
  79.2205385  51.1752747  65.1546204  78.7715133  51.3069752  64.0033075
  80.0832186  52.0562961  65.6483392  80.4414950  52.0109119  66.5915665
  80.4995807  53.1641500  64.8060736  79.6219363  53.7045979  64.4514534
  81.3874509  54.1320400  65.5822732  81.0544516  54.1485967  66.6200288
  82.4145110  53.7698855  65.5365386  81.3240285  55.4511383  65.0415976
  81.8921604  56.0334897  65.5511981  81.2464831  52.6461493  63.5757643
  82.1589933  51.8186807  63.6657127  80.8789332  53.1638935  62.4212817
  80.1349887  53.8435672  62.3528019  81.5312905  52.7230066  61.1881999
  81.5278098  51.6349513  61.1232173  80.7718661  53.2846331  59.9925016
  80.7105038  54.3695575  60.0777834  81.2592860  53.0214818  59.0537401
  79.3736794  52.7852122  59.9006666  78.9131431  51.4866018  60.1641934
  79.6420607  50.7438103  60.4882917  77.5558070  51.4347976  59.9407854
  76.9726296  50.6208369  60.0729655  77.1175692  52.6752799  59.5283554
  75.8468822  53.1010351  59.2000569  75.0318395  52.3816203  59.2790925
  75.6851982  54.4039727  58.7938934  74.6981279  54.7644400  58.5043154
  76.7534028  55.2711716  58.7446781  76.6183353  56.3041588  58.4240636
  78.0403005  54.8578441  59.1024514  78.8524995  55.5820459  59.0394797
  78.2305227  53.5399685  59.4999302  82.9897476  53.1601902  61.1211010
  83.8379275  52.4386789  60.5866532  83.2907626  54.3691800  61.6316150
  82.5140738  54.9349640  61.9426492  84.6367117  54.9154637  61.7546769
  85.3040681  54.3783116  61.0807317  84.6791763  56.4035298  61.4014361
  84.0994300  56.9625052  62.1359700  85.7110943  56.7544776  61.4104374
  84.1333295  56.7448552  60.0910510  84.8570597  56.4668522  58.9581128
  85.8335177  55.9878695  59.0302601  84.3453198  56.7949237  57.7333201
  84.9070416  56.5660504  56.8276787  83.1050979  57.4221076  57.6436602
  82.7115712  57.7129934  56.6696878  82.3675688  57.6777729  58.7975415
  81.3792697  58.1334147  58.7362585  82.8832967  57.3585394  59.9878817
  82.3266274  57.5767426  60.8992578  85.1380244  54.7424047  63.1823400
  84.8136198  55.5806297  64.0503869  85.9781583  53.7397455  63.4678618
  86.5873933  52.7612402  62.6179012  87.2951218  53.2666471  61.9607983
  85.8081361  52.2905919  62.0184452  87.2609922  51.7857713  63.5562077
  88.0914491  51.2823858  63.0611890  86.5501296  51.0428798  63.9179919
  87.7506640  52.6786286  64.7027073  88.6910806  53.1905105  64.4985200
  87.8328280  52.1291792  65.6404995  86.6200190  53.6910791  64.7921048
  85.8907582  53.2975994  65.5002366  87.1026320  55.0479070  65.2662448
  87.4626499  55.9109163  64.4402727  87.0840664  55.2753450  66.5838234
  86.7238316  54.5741407  67.2152050  87.5695188  56.5089798  67.1404401
  87.9608295  56.2833661  68.1324449  88.3811979  56.8544278  66.5001730
  86.5347116  57.6048555  67.2573397  86.8093196  58.6159059  67.9199840
  85.3510750  57.4459280  66.6465004  85.1147098  56.5567137  66.2299326
  84.3922980  58.5425002  66.5294664  84.7317483  59.3713964  67.1505974
  84.2379171  59.0419053  65.0870538  84.2118087  58.1657099  64.4392118
  83.2729010  59.5475264  65.0525389  85.3168455  59.9850726  64.6137833
  86.5532435  59.5000315  64.1900721  86.7422855  58.4269154  64.2180806
  87.5345450  60.3635647  63.7378116  88.5008351  59.9876967  63.4014952
  87.2715242  61.7354657  63.7128775  88.2243053  62.6348616  63.2753970
  89.0434863  62.2125000  63.0067842  86.0439461  62.2220661  64.1320304
  85.8365672  63.2920181  64.1147940  85.0868794  61.3459759  64.5707266
  84.1156557  61.7181794  64.8967466  83.0283807  58.1073560  67.0445441
  82.7489038  56.9112730  67.2525227  82.1847794  59.1118361  67.2629972
  82.4599564  60.0545707  67.0271403  80.8699721  58.9023527  67.8276575
  80.6341255  57.8393730  67.8781512  80.6920384  59.5070082  69.2149052
  80.9158375  60.5731660  69.1785529  79.6632899  59.3632883  69.5452407
  81.3695212  59.0177295  69.9147070  79.8913487  59.5579437  66.8834139
  80.2533032  60.4657504  66.1333328  78.6497798  59.1049705  66.8999047
  78.3537965  58.4014137  67.5613433  77.7071428  59.5322285  65.8813709
  78.1339672  60.3524449  65.3041662  77.3787209  58.3458777  64.9019461
  76.5715838  58.6206393  64.2228769  78.2555410  58.0538953  64.3239903
  76.9301638  57.1420816  65.6249658  77.6659730  56.0352835  65.9836478
  78.7116091  56.0068812  65.6771543  76.8707584  55.1616566  66.6898488
  77.1618548  54.2685582  67.0609789  75.6012563  55.6781204  66.7597030
  74.4576310  55.1539099  67.3116536  74.5182859  54.1749155  67.7870373
  73.3103091  55.8952361  67.2301872  72.3977213  55.5068236  67.6823147
  73.2731771  57.1164537  66.5947953  72.3542114  57.7000817  66.5402074
  74.4198397  57.6430115  65.9995057  74.3543943  58.6123740  65.5053864
  75.6062817  56.9104611  66.0835431  76.5010351  60.1006810  66.5944935
  76.3874526  60.0093098  67.8124403  75.5971732  60.7032001  65.8190935
  75.7570911  60.7829205  64.8250259  74.3963843  61.3058712  66.3745399
  73.8995140  60.5792531  67.0173814  74.6939458  62.5446819  67.1862727
  75.0810567  63.3072410  66.5104406  73.4552287  63.0794610  67.9002471
  73.0677934  62.3175713  68.5766476  73.7198886  63.9700238  68.4702930
  72.6922299  63.3331921  67.1643437  75.6862325  62.2231118  68.1683240
  75.8838289  63.0036873  68.6910647  73.4988690  61.6064065  65.1871647
  73.9202977  62.1430025  64.1617031  72.2438690  61.2579581  65.2632221
  71.8403404  60.8369067  66.0878310  71.4086092  61.4159830  64.0973190
  71.8762241  60.9936327  63.2079059  70.0355255  60.7481923  64.2954779
  69.4952690  61.2952295  65.0681178  69.2229041  60.7481018  63.0144269
  69.7623462  60.2008127  62.2413953  68.2606392  60.2686161  63.1939822
  69.0610292  61.7748137  62.6861575  70.2927888  59.3449599  64.8020333
  70.8366527  59.3926935  65.7454503  69.3424670  58.8339658  64.9565422
  70.8847445  58.7964517  64.0693478  71.2732144  62.8921956  63.8074383
  71.2597442  63.7382508  64.7001925  71.2028283  63.2071342  62.5427670
  71.2851703  62.4795591  61.8470993  71.0332274  64.5706287  62.0919808
  71.0583188  65.2839919  62.9157421  72.1194092  64.9550991  61.0765791
  72.1007056  64.2551503  60.2412218  71.9328742  65.9640639  60.7087542
  73.0966429  64.9193418  61.5580715  69.6528433  64.6554199  61.4694545
  69.0741772  63.6477517  61.0495575  69.1203911  65.8660402  61.3894908
  69.5783756  66.6943627  61.7419556  67.7916684  66.0038499  60.8185892
  67.6117509  65.1971612  60.1079683  66.7191459  65.9391818  61.9165070
  66.8413818  64.9910497  62.4401511  66.9054781  66.7616905  62.6070574
  65.2833881  66.0425264  61.3715405  65.1472205  67.0034527  60.8753754
  65.1380319  65.2380929  60.6505271  64.2292704  65.9075137  62.4746449
  63.5616534  66.8883157  62.8239027  64.0571909  64.6983425  63.0118764
  63.3720540  64.5664172  63.7421398  64.6128569  63.9205124  62.6858137
  67.6696104  67.2951115  60.0496331  67.8683762  68.3702994  60.6096260
  67.3625438  67.1590627  58.7646227  67.4940512  66.2572552  58.3292504
  66.8559598  68.2477471  57.9514930  67.6632732  68.9078507  57.6343048
  66.1522487  67.7114476  56.7144245  65.4993900  66.8854488  56.9965620
  66.8941463  67.3590666  55.9978246  65.1812975  68.9633137  55.8674593
  65.8812439  69.0664420  58.7703682  64.8374699  68.5708819  59.1859411
  66.0870556  70.3857958  58.8580039  66.9431191  70.7823390  58.4974375
  65.1330825  71.2865258  59.5592612  64.7996113  70.8160205  60.4842049
  65.7944159  72.6265193  59.9020025  66.6894036  72.4129155  60.4863565
  66.0787715  73.1036363  58.9641319  64.8758228  73.5682554  60.6978102
  64.0190716  73.8093190  60.0685515  64.5357389  73.0325881  61.5840977
  65.5720976  74.8516679  61.1182026  66.4321341  74.6011290  61.7392230
  65.9099538  75.3798901  60.2266120  64.6137389  75.7485013  61.9107758
  63.7641043  75.9790049  61.2680552  64.2701032  75.1850659  62.7782746
  65.2543256  77.0211015  62.3651671  65.5724317  77.5435459  61.5614506
  64.5817835  77.5714670  62.8798369  66.0413817  76.8077414  62.9610858
  63.8549688  71.4908705  58.7286370  62.7952423  71.6666382  59.3587825
  63.9249042  71.4669945  57.3896654  64.8232517  71.2950369  56.9612943
  62.7643848  71.7956113  56.4995767  62.3073546  72.7383813  56.8002547
  63.2289301  71.8941180  55.0174043  63.7544937  70.9770012  54.7513591
  62.0394612  72.0823488  54.0917251  61.5136303  72.9995714  54.3568764
  62.3875297  72.1487155  53.0609271  61.3624324  71.2340292  54.1921500
  64.2121161  73.0555997  54.8391951  65.0634799  72.8514305  55.4884988
  64.5368273  73.0379884  53.7988336  63.6357196  74.4388544  55.1715799
  63.3111971  74.4573818  56.2119845  64.4015257  75.1989097  55.0168024
  62.7845425  74.6439387  54.5223204  61.5812325  70.8227301  56.6379451
  60.4503873  71.3389253  56.7517901  61.7966727  69.4995615  56.6269732
  62.7493042  69.1828298  56.5161841  60.7088777  68.4694015  56.7016617
  59.7646264  68.9775306  56.8973512  60.5934590  67.7194588  55.3809121
  60.7107728  68.4193902  54.5536071  59.6150979  67.2431659  55.3172357
  61.8749150  66.4596560  55.1689794  60.9496426  67.4876700  57.8579624
  60.0794681  66.6088508  58.0367195  62.0661011  67.5951483  58.5849142
  62.7539546  68.2452281  58.2322766  62.4145255  66.7777357  59.7821873
  63.2387768  67.2936280  60.2746953  61.2433749  66.7172771  60.7363387
  60.4130592  66.1953762  60.2606336  61.5374747  66.1834431  61.6400128
  60.9340165  67.7293602  60.9972687  62.9121354  65.3638336  59.4272768
  63.1515297  64.6026721  60.3882932  63.0883038  65.0052347  58.1468892
  62.8913035  65.6634388  57.4065800  63.4980076  63.6594745  57.7814327
  62.9307158  62.9306160  58.3602629  63.2439134  63.4085005  56.2985432
  63.6312185  64.2507396  55.7251958  63.7619076  62.4972373  55.9995760
  61.8482965  63.2652626  56.0478874  61.7058246  63.1081381  55.1116110
  64.9720860  63.4789229  58.1418116  65.7625217  64.4252358  58.1245081
  65.3278309  62.2601015  58.5523100  64.6504262  61.5119342  58.5906226
  66.6855987  61.9903011  59.0217186  67.0192222  62.8049089  59.6645315
  66.7369396  60.6936404  59.8143378  66.8882798  59.8111102  59.1927786
  67.5485418  60.7714171  60.5377691  65.4912818  60.4561935  60.5953714
  64.2785249  60.2225361  59.9868657  63.3465701  60.0843524  60.9101920
  62.3112448  59.8903652  60.6298894  63.9109639  60.2220417  62.0936641
  63.4408001  60.1555794  62.9850836  65.2525282  60.4727419  61.9263604
  65.8890013  60.6362875  62.7959903  67.6090649  61.9537338  57.8115839
  67.3163574  61.2695148  56.8194253  68.6978025  62.7289098  57.8772389
  68.9374239  63.2317566  58.7197506  69.5283065  62.9242042  56.6966363
  69.0117996  62.5212153  55.8254763  69.8381446  64.4099277  56.4654936
  70.3139987  64.8244452  57.3542222  70.7670046  64.5536478  55.2844684
  70.2916208  64.1397410  54.3952035  70.9867582  65.6086261  55.1206696
  71.6943616  64.0165102  55.4834439  68.5394222  65.1900608  56.2028562
  67.7927844  64.7823058  56.8843022  68.7448419  66.2271358  56.4681439
  68.0171179  65.1270419  54.7891780  67.8110160  64.0902495  54.5233146
  67.0992999  65.7101936  54.7140549  68.7630750  65.5350778  54.1071556
  70.8112866  62.1133221  56.8327366  71.3487078  61.5939768  55.8356950
  71.3037457  61.9717109  58.0458335  70.9287629  62.4372713  58.8599224
  72.4427812  61.1021871  58.2187861  72.1655682  60.0658438  58.0257972
  73.2510036  61.3925893  57.5475616  72.9159288  61.2240507  59.6307527
  72.0747577  61.2936676  60.5303246  74.2394349  61.1594791  59.8272121
  74.8198175  61.0131766  59.0136700  74.8892383  61.3037950  61.1213923
  74.1530186  61.5424714  61.8889294  75.5803019  59.9894810  61.4977949
  76.2892761  59.7136963  60.7171556  76.1168733  60.1619516  62.4307714
  74.7055244  58.7979340  61.7214759  74.5957624  58.1162156  62.8578536
  75.2111256  58.4602794  63.6891466  73.7150718  57.1132304  62.7254497
  73.4679146  56.4506687  63.4465771  73.2125586  57.1291514  61.4615307
  72.2929321  56.3081364  60.8546778  71.8309794  55.5111356  61.4373339
  72.0222027  56.5463328  59.5685790  71.2951289  55.9214909  59.0498919
  72.6436717  57.5705197  58.8743001  72.4255210  57.7283963  57.8180876
  73.5142717  58.3851358  59.4597882  74.0089109  59.1400604  58.8486240
  73.8130528  58.1829473  60.8001966  75.9822698  62.3882895  61.1833579
  76.8316180  62.5142254  60.2973963  76.0056263  63.1945231  62.2627428
  75.2125372  63.2127831  62.8878633  77.1450773  64.1191816  62.5377686
  77.6430408  64.3415665  61.5940121  76.7118802  65.4388016  63.1857950
  76.0121637  65.9256309  62.5064621  76.2028010  65.1965110  64.1186582
  77.8875096  66.3858034  63.4750651  78.5506231  65.8880938  64.1826430
  78.4180235  66.5550641  62.5380444  77.4404741  67.7194609  64.0519757
  76.7768693  68.2092266  63.3393347  76.9037860  67.5404719  64.9836561
  78.6508516  68.6198633  64.3247516  79.2747011  68.1239169  65.0683574
  79.2078175  68.7212825  63.3932999  78.2634778  69.9752582  64.8235855
  77.7477408  69.8815276  65.6869103  79.0953066  70.5245304  64.9862537
  77.6857525  70.4351518  64.1345061  78.0568439  63.2757867  63.4231068
  77.4978837  62.4727347  64.1652395  79.3684856  63.4532700  63.3694249
  79.7126098  64.1408411  62.7145021  80.3502664  62.6263894  64.0953319
  79.8136715  61.9275465  64.7370357  81.2588497  61.8275647  63.1526598
  81.5997099  62.4748701  62.3446318  82.1205831  61.4495118  63.7027430
  80.6049761  60.6352102  62.5032247  79.7656136  60.7910733  61.4152991
  79.5814409  61.7914459  61.0235913  79.1607643  59.6921493  60.8231384
  78.5033093  59.8336959  59.9653399  79.3874199  58.4301594  61.3133015
  78.9115532  57.5662880  60.8492144  80.2175629  58.2588381  62.3927985
  80.3974614  57.2571340  62.7830876  80.8267340  59.3545480  62.9869570
  81.4870743  59.2134885  63.8426163  81.1401728  63.4953566  65.0809793
  81.0847728  64.7221803  64.9070816  81.8342273  62.8930882  66.0603838
  81.7816073  61.8849371  66.0913963  82.6134360  63.5902185  67.1150719
  83.1443234  64.4472468  66.7006324  81.6649830  64.0855779  68.2128834
  82.2841631  64.5385709  68.9871660  80.6323317  65.0864407  67.7437865
  80.0124300  64.6339817  66.9697694  80.0046621  65.3826640  68.5842517
  81.1347333  65.9649079  67.3388315  80.9906257  62.9373672  68.7334443
  80.3848619  63.2090748  69.4268601  83.6848157  62.6390630  67.6824709
  83.2894280  61.7534647  68.4450024  84.9866022  62.8234988  67.3924979
  85.2109122  63.6130475  66.8039426  86.0947493  61.9374706  67.8354718
  86.0301160  60.9822574  67.3144252  87.4226274  62.5716693  67.5148791
  87.5059941  63.5249829  68.0367443  88.2282002  61.9109910  67.8352799
  87.4960903  62.7386816  66.4402586  85.9967051  61.6517352  69.3408035
  85.6279041  62.5879240  70.0785774  86.3482415  60.4282115  69.7928853
  86.6518396  59.7150062  69.1453780  86.2421441  60.0816586  71.1977712
  85.2862169  60.4951978  71.5191554  86.1860759  58.5461534  71.3349322
  86.0182086  58.2934883  72.3818712  85.0567147  57.9617187  70.4817257
  85.2241508  58.2135942  69.4345278  85.0381396  56.8778542  70.5957068
  84.1028323  58.3771188  70.8067670  87.3675577  57.9776400  70.7590777
  87.3361782  57.0217970  70.8426231  87.3835129  60.6415902  72.0456467
  87.4607431  60.3880071  73.2530671  88.2959386  61.3963413  71.4207113
  88.2014658  61.5981056  70.4355893  89.4968328  61.8725315  72.1162119
  89.2582267  62.0608065  73.1629777  90.6264313  60.8376755  72.0495937
  90.8035620  60.6096669  70.9985294  91.5187193  61.2951223  72.4769866
  90.3029141  59.5393450  72.8080292  89.3087711  59.2129328  72.5026840
  91.0371822  58.7891498  72.5144997  90.3361455  59.7169316  74.3162748
  91.3313067  60.0485341  74.6125736  89.6026477  60.4713044  74.6008832
  90.0079774  58.3945365  75.0195264  90.6925506  57.6358457  74.6402530
  90.1761131  58.5336327  76.0874598  88.5978252  57.9522377  74.7906954
  88.4419437  57.8228751  73.8012178  88.4359056  57.0802197  75.2738794
  87.9633208  58.6549248  75.1424540  89.9303154  63.2114605  71.5420977
  89.8830821  63.4018999  70.3298754  90.3785908  64.1221810  72.4239670
  90.3757556  63.8946355  73.4079966  90.7737836  65.4688692  72.0267587
  90.0119102  65.9061714  71.3814564  90.9346589  66.3566043  73.2656306
  91.0843390  67.3798242  72.9210784  90.0077847  66.2978271  73.8362000
  92.1144389  65.9394255  74.1602791  91.9665099  64.8971195  74.4427965
  93.0274917  66.0297556  73.5718260  92.2331027  66.7909169  75.4121350
  92.3319922  67.8367100  75.1212112  91.3323583  66.6650640  76.0129012
  93.4579490  66.3712827  76.2338726  93.3104970  65.3382897  76.5489662
  94.3317213  66.4314793  75.5850293  93.6705255  67.2333719  77.4367684
  92.8611588  67.1773973  78.0383431  94.4864081  66.9145174  77.9395281
  93.8076038  68.1905413  77.1449886  92.0351656  65.5261542  71.1636250
  92.3775668  66.6128790  70.6861297  92.7245870  64.4034081  70.9332681
  92.4239884  63.5419171  71.3663652  93.9448444  64.3857908  70.1296945
  94.3191196  65.4002210  69.9920409  95.0261040  63.5552827  70.8447945
  95.7705045  63.2917789  70.0934404  95.4890366  64.1756515  71.6122161
  94.4757394  62.2830296  71.4832041  93.9763759  62.3553078  72.6302076
  94.5571395  61.2033143  70.8534432  93.7346373  63.8497048  68.7083445
  94.7097883  63.6110188  67.9917508  92.4685743  63.7112334  68.2982175
  91.7069236  63.8451265  68.9478791  92.1521052  63.2015281  66.9334487
  93.0784639  62.9070326  66.4402640  91.2092178  61.9854664  66.9757129
  90.3216855  62.3121119  67.5176431  90.9444785  61.7743779  65.9396363
  91.7616108  60.7304664  67.6213892  92.6353118  60.4123097  67.0525977
  92.0616864  60.9765055  68.6399772  90.5698307  59.3953965  67.6652382
  90.5615196  58.8714926  65.9373468  91.5622247  58.5486235  65.6502163
  89.8632232  58.0440795  65.8113693  90.2540858  59.7050563  65.3058747
  91.6363049  64.3454532  66.0529356  91.0617341  65.3023952  66.6085114
  91.8350693  64.2462994  64.7341213  92.3482060  63.4589176  64.3642296
  91.3831332  65.3011956  63.7874552  90.6405782  65.9356896  64.2713236
  92.5437288  66.1614382  63.3549886  92.2544600  66.7220659  62.4661020
  92.7859716  66.8561535  64.1592206  93.6786618  65.3641313  63.0618490
  94.4050283  65.9294416  62.7890564  90.6912435  64.6474746  62.5826736
  91.0046879  63.4734344  62.3022840  89.7692108  65.3258400  61.8594863
  89.3572229  65.0934456  60.5208097  89.1733721  64.0243140  60.4147118
  90.1796289  65.3866714  59.8683023  88.1141904  65.9220582  60.2892747
  87.2198061  65.3665598  60.5714042  88.0391796  66.2242150  59.2446810
  88.3269706  67.1393575  61.1972488  87.3972118  67.5932572  61.5402102
  88.9539005  67.9017108  60.7347814  89.0580093  66.5090192  62.3713382
  89.8007031  67.2297891  62.7133836  88.1137832  66.1614374  63.5279237
  87.5880196  65.0719928  63.5452714  87.8899082  67.1038087  64.4466595
  88.3211976  68.0150817  64.3860772  87.0683325  66.7908598  65.6464121
  87.4708729  65.9101903  66.1468936  87.0789568  67.9624074  66.6332898
  87.3609484  68.8561261  66.0766509  86.0644187  68.0776302  67.0147818
  88.0402254  67.7661239  67.7989143  89.0564613  67.8273118  67.4095283
  87.8828786  68.5603410  68.5286835  87.8677601  66.4355589  68.4895616
  86.7786461  66.0791999  68.9343469  88.9562104  65.6919098  68.5980415
  88.9051492  64.7904036  69.0505686  89.8333796  66.0290022  68.2278467
  85.6419929  66.4072393  65.2391636  85.1014812  65.4693967  65.8541737
  85.0548255  67.0882918  64.2473819  85.5200333  67.8378850  63.7556592
  83.6290260  66.8064759  63.9196601  83.3735488  65.7925046  64.2273818
  82.7045986  67.7874758  64.6496020  83.0079651  68.7965120  64.3704710
  81.6882046  67.6046557  64.3008612  82.7550900  67.6421728  66.1801717
  82.4107792  66.6390279  66.4316696  83.7929394  67.7584422  66.4923450
  81.8936348  68.6670020  66.8964572  82.2378965  69.6666897  66.6314905
  80.8582455  68.5437812  66.5788332  81.9875472  68.4803930  68.4153036
  81.6112617  67.4854372  68.6531538  83.0388391  68.5472188  68.6953374
  81.2039169  69.5038594  69.1737724  80.2296693  69.4418171  68.9147510
  81.3002018  69.3350286  70.1648957  81.5527139  70.4258525  68.9538441
  83.3586974  66.8221381  62.4123253  83.6466775  67.8581355  61.7777342
  82.8265139  65.7236229  61.8628437  82.7170420  64.8886462  62.4204540
  82.4211144  65.6784630  60.4662633  82.3247369  66.6979367  60.0927878
  83.4273748  64.9354520  59.5982974  83.0498234  65.0123089  58.5786665
  84.4358951  65.3464580  59.6436942  83.5451218  63.4883358  59.8990850
  84.3985474  63.0561221  60.8823943  84.9351811  63.8086851  61.4601252
  84.5866166  61.7276989  61.1479295  85.2719630  61.4112850  61.9342394
  83.9025127  60.7883706  60.4133541  84.0178967  59.7256297  60.6263523
  83.0431325  61.2117075  59.3735847  82.5060025  60.4850696  58.7640038
  82.8879918  62.5638390  59.1340230  82.2367233  62.9034326  58.3286501
  81.0740588  65.0009760  60.3547537  80.5702868  64.4082395  61.3008438
  80.4866922  65.1187950  59.1850562  80.9273723  65.6840430  58.4734418
  79.1832193  64.5372422  58.8958442  78.7306354  64.1531020  59.8100123
  78.2589589  65.6113497  58.3045972  78.6101278  65.9162058  57.3187766
  77.2631142  65.1769925  58.2166923  78.1024201  66.9311426  59.1562904
  79.0878138  67.8680989  59.4059567  80.0769136  67.6684909  58.9937215
  78.5679489  68.9151702  60.1703913  79.0918861  69.7190480  60.4856208
  77.2360325  68.6796196  60.4242883  76.2990331  69.4498556  61.1411724
  76.6313294  70.3903333  61.5806944  75.0171902  68.9648514  61.2423096
  74.2623527  69.5391218  61.7794630  74.6561230  67.7398689  60.6662902
  73.6427335  67.3520693  60.7699853  75.5837922  66.9750694  59.9397940
  75.2433318  66.0356958  59.5041743  76.8970158  67.4432597  59.8117952
  79.3802432  63.3399020  57.9673702  80.3197117  63.3199663  57.1668357
  78.5653298  62.2985911  58.1500829  78.0021417  62.2818027  58.9883171
  78.4421825  61.1859079  57.2100085  79.0567463  61.3438242  56.3237393
  78.7143858  60.2390099  57.6762583  76.9883379  61.1312497  56.7973522
  76.1349402  60.5717527  57.4900927  76.6720415  61.7391552  55.6785490
  77.3877895  62.2255473  55.1577546  75.3038354  61.7949033  55.1876782
  74.5998370  61.8476340  56.0181630  75.1371698  63.0619155  54.3175336
  75.6803063  62.8182259  53.4044523  74.0859073  63.2267086  54.0813336
  75.7355229  64.3531051  54.9477564  75.4930886  64.2914874  56.0086663
  77.2590804  64.6036268  54.7788918  77.5022217  64.6658293  53.7181789
  77.5305548  65.5387211  55.2687908  77.8151675  63.7823865  55.2310334
  75.0132541  65.6587246  54.4511805  73.9574256  65.6144845  54.7183293
  75.4704836  66.5289814  54.9220259  75.1105046  65.7389761  53.3684982
  74.9690818  60.5113546  54.4049499  75.8479535  59.7160079  54.0402087
  73.6809529  60.2838709  54.1921751  72.9700172  60.8581096  54.6221982
  73.2588720  59.1828073  53.3533565  74.0226938  58.4147680  53.2317379
  71.9705191  58.5177612  53.8666774  71.6365399  57.7949656  53.1222820
  72.1905740  57.8217755  55.1741084  72.5241455  58.5440648  55.9191775
  71.2579205  57.3643636  55.5043067  72.9500708  57.0495491  55.0519136
  70.9128537  59.5105946  53.9223089  70.1058135  59.1008036  54.2422430
  73.0356455  59.7345536  51.9373579  72.3282555  60.7423240  51.7643257
  73.5781046  59.0364259  50.9215952  74.2973961  58.3437364  51.0729239
  73.1695846  59.3198465  49.5528373  73.4985890  60.3173289  49.2614885
  73.8013381  58.2986778  48.6015418  74.8575465  58.2653432  48.8687716
  73.3348995  57.3443813  48.8461910  73.6617605  58.5666716  47.0831646
  72.8328752  57.9753592  46.6940635  73.4561058  59.6258012  46.9280753
  74.9827587  58.1746057  46.3301930  75.0725371  58.7781880  45.4270168
  75.8359741  58.3661872  46.9808999  74.9896402  56.7627500  45.9524693
  75.6694581  56.1623479  46.3968388  74.1724988  56.2353737  45.0542282
  73.3331436  56.9996523  44.3639854  73.3151893  57.9967727  44.5237624
  72.7168625  56.5800370  43.6826482  74.1828820  54.9197290  44.8572535
  74.8110478  54.3370639  45.3920518  73.5625534  54.5096011  44.1738164
  71.6572519  59.3040045  49.4557969  71.0573797  60.2153242  48.8744754
  71.0092863  58.3244932  50.1140895  71.5060713  57.7355740  50.7671425
  69.5960143  58.0354579  49.8537691  69.4569683  57.7379855  48.8144060
  69.1285099  56.8818354  50.7630698  68.0413233  56.8532747  50.6902082
  69.5446561  55.9677149  50.3396243  69.5092263  56.9871410  52.1296128
  69.1753968  56.2286026  52.6141509  68.7211318  59.2751669  50.0498206
  67.7311817  59.4935452  49.3276713  69.0841830  60.1031888  51.0140414
  69.9340224  59.9072973  51.5234518  68.2820389  61.2404283  51.4254743
  67.2327247  60.9666837  51.3154614  68.5646738  61.5241652  52.9188530
  69.6094922  61.8084952  53.0437976  67.9240554  62.3363354  53.2624920
  68.3600100  60.6279781  53.5045668  68.5171650  62.5055276  50.5820465
  67.8056564  63.5036540  50.7858313  69.4573556  62.4890751  49.6333859
  69.8793064  61.6121679  49.3630330  69.9378415  63.7138558  48.9981910
  69.4099403  64.5695951  49.4190589  71.4351251  63.9070899  49.2204694
  71.8909828  62.9776982  48.8791132  71.8373671  64.7411149  48.6454010
  71.7461674  64.1122622  50.6971856  71.2422096  63.3299621  51.2647539
  73.2049736  64.0579710  50.9678758  73.7095900  64.8403283  50.4009735
  73.3833455  64.2088988  52.0325377  73.5944987  63.0847705  50.6691261
  71.1497287  65.4023530  51.2083575  70.0673532  65.3780094  51.0819845
  71.3890575  65.5202369  52.2652048  71.5617405  66.2411351  50.6472962
  69.6338607  63.6776238  47.5157063  70.0802659  62.7630347  46.8224976
  68.8694774  64.6545694  47.0614846  68.4367356  65.2447421  47.7575665
  68.5422801  64.8863541  45.6564729  68.9059068  64.0514748  45.0574309
  67.0142083  65.0640212  45.4242751  66.6742271  65.9406528  45.9756645
  66.7102966  65.2462070  43.9466568  67.0495966  64.3697093  43.3946350
  65.6360265  65.3685358  43.8085258  67.2269502  66.1312491  43.5753502
  66.2448199  63.8526574  45.9642209  66.4320293  63.8123768  47.0372684
  65.1867977  64.0462249  45.7875291  66.6325153  62.5115358  45.3269776
  67.6903694  62.3170471  45.5036658  66.0378037  61.7127339  45.7700721
  66.4451397  62.5508963  44.2539254  69.3586411  66.1082712  45.2105867
  69.2782511  67.1585091  45.8513048  70.1838758  65.9948887  44.1684609
  70.6922968  64.8297837  43.4606309  70.0388583  64.6298589  42.6114262
  70.6744272  63.9780590  44.1405903  72.0957306  65.2010079  43.0385408
  72.4015199  64.6278597  42.1632733  72.8024539  65.0284753  43.8502526
  71.9848825  66.6969467  42.7177839  71.5681761  66.8667555  41.7250001
  72.9194094  67.2489058  42.8182834  70.9958418  67.1539075  43.7785523
  71.5766081  67.4920869  44.6367151  70.0974029  68.2760854  43.3043885
  68.9800096  68.0604973  42.8370045  70.5940144  69.4908090  43.4255195
  71.4816892  69.6590305  43.8769996  69.8526405  70.6289683  42.9231033
  68.8630596  70.5703869  43.3763110  70.5173589  71.8835536  43.3884088
  69.9582095  72.7412103  43.0144073  70.5592553  71.9291935  44.8713561
  71.1186782  71.0720392  45.2460987  71.0465987  72.8494444  45.1934335
  69.5432996  71.8996597  45.2651357  71.8763160  71.8310106  42.9709150
  72.3299825  72.6271898  43.2570715  69.7554002  70.6713241  41.4171388
  70.4624021  70.2415576  40.8560869  68.9804588  71.1312811  40.9839236
  63.8795987  68.2471472  53.9297628  60.4881166  42.4769340  68.3906464
  61.2288357  43.1143095  68.1353253  60.5375087  41.6652130  67.7916725
  60.4881191  42.3646287  69.3943830  59.1981919  43.1205422  68.0700301
  58.6746939  42.5019856  67.3410330  58.2882754  43.3036626  69.3069342
  58.3479791  42.4374096  69.9658277  58.6113409  44.1934631  69.8472893
  56.8227625  43.5016226  68.9835631  56.0912135  42.5081566  68.3521240
  56.5795919  41.5697214  68.0895868  54.7348985  42.7013280  68.0506138
  54.1745324  41.9112089  67.5508115  54.1089243  43.8872767  68.3845511
  53.0561722  44.0406122  68.1472727  54.8175389  44.8709957  69.0158855
  54.3327329  45.8137070  69.2695761  56.1673436  44.6679996  69.3371969
  56.7209872  45.4370808  69.8757996  59.3647774  44.4271733  67.2564901
  59.6624713  45.5032110  67.7960504  59.1380484  44.2982607  65.9328023
  58.9709253  43.3630946  65.5898249  59.2640849  45.3777855  64.9622385
  59.6816884  46.2867284  65.3952850  60.1589880  44.9084731  63.7809108
  59.6936431  44.0352131  63.3237769  60.3319521  46.0248656  62.7090772
  60.7976934  46.8983447  63.1653885  60.9636522  45.6578838  61.9001396
  59.3557488  46.3008953  62.3104121  61.5150328  44.4353771  64.3174084
  62.1998739  45.2791077  64.2324843  61.3701152  44.1901917  65.3695408
  62.0805367  43.2734551  63.6173509  62.2261799  43.5180498  62.5651810
  63.0390172  43.0102019  64.0646897  61.3964195  42.4291340  63.7022358
  57.8844526  45.9054411  64.5420202  57.0305451  45.1180313  64.1378831
  57.6817042  47.2285472  64.6630871  58.4361145  47.7423272  65.0955159
  56.4508736  47.9556970  64.3180029  55.6957002  47.2938935  63.8939412
  55.8175931  48.7288797  65.5283555  54.9057736  49.2178631  65.1854565
  55.4851434  47.7850874  66.6898021  56.3966082  47.2960498  67.0335680
  55.0486357  48.3561869  67.5091963  54.7734763  47.0310277  66.3536090
  56.7125038  49.8748586  66.0057110  56.8631611  50.5826439  65.1905764
  56.2365152  50.3831617  66.8442588  57.6761462  49.4761560  66.3227762
  56.7567650  48.9006410  63.1362751  57.8798287  49.3901892  63.0085199
  55.7666662  49.1298422  62.2892024  54.8806324  48.6830115  62.4773132
  55.8754637  49.9837143  61.1065192  54.9006978  49.9675009  60.6190073
  56.0842015  50.9910330  61.4668480  56.9401027  49.5893253  60.0965018
  57.3902907  50.4315663  59.3128501  57.3602445  48.3279850  60.1491187
  56.9253472  47.7219581  60.8300703  58.3967463  47.7729247  59.2953670
  58.2963892  46.6890853  59.3529847  58.1720717  48.1047167  58.2816932
  59.8282791  48.1560248  59.6354832  60.7516095  47.5099516  59.1314083
  60.0531847  49.1827371  60.4914132  59.2904657  49.7445356  60.8417581
  61.4282695  49.6021219  60.8022882  62.1030621  48.7589040  60.6548508
  61.8874679  50.7672700  59.8944603  62.8780565  51.0396368  60.2586714
  61.9735821  50.3354348  58.8973631  61.0074856  52.0129029  59.8347699
  60.0065143  51.7508737  59.4919903  60.9440562  52.4767986  60.8190867
  61.6404093  52.9906569  58.8528006  62.6204495  53.2409307  59.2589816
  61.7639149  52.4468625  57.9162465  60.8635694  54.2573005  58.5992799
  60.0142159  54.0171780  57.9597171  60.5021874  54.6358369  59.5554244
  61.7059490  55.2992494  57.9377121  62.0405614  54.9488480  57.0515106
  61.1538155  56.1309095  57.7841210  62.4928039  55.5222054  58.5303748
  61.7335886  49.9415690  62.2741544  62.8997216  50.1530008  62.5858651
  60.7384193  49.9904466  63.1641639  59.7781578  49.9004956  62.8643205
  61.0000807  50.3368241  64.5664313  62.0298868  50.6812312  64.6612065
  60.0562044  51.4535843  65.0748311  59.0674657  51.0240984  65.2361908
  60.4681131  51.7843156  66.0282711  59.9453689  52.6352041  64.1367367
  60.9690255  53.5769178  64.0434871  61.8450601  53.4623531  64.6818739
  60.8887046  54.6461499  63.1588983  61.7004687  55.3709927  63.0977125
  59.7723051  54.7863593  62.3502782  59.6868216  55.8372823  61.4834411
  60.4530564  56.4146425  61.5171916  58.7411725  53.8651397  62.4215937
  57.8634600  53.9716564  61.7841179  58.8291418  52.7980429  63.3135948
  58.0180143  52.0727096  63.3773426  60.9863931  49.1063469  65.4765623
  59.9279726  48.5292314  65.7185288  62.1835267  48.6812671  65.9225189
  63.0004936  49.1879515  65.6127846  62.3742627  47.5322044  66.8052152
  61.5870121  46.8010367  66.6215596  63.7410572  46.8567888  66.5629849
  63.8539850  46.7293352  65.4863688  64.5091771  47.5373496  66.9303116
  63.8879727  45.5074933  67.2513732  63.4246327  45.5935759  68.2342296
  63.3399638  44.7784148  66.6545207  65.3339038  45.0503102  67.4097899
  65.3173483  43.9771227  67.5997729  65.8421462  45.2437384  66.4651341
  66.0744903  45.7525964  68.5363025  66.1447011  46.8109630  68.2852422
  65.4904535  45.6341819  69.4489789  67.4427106  45.2005878  68.7473135
  67.9841930  45.3106051  67.9018593  67.8932426  45.6971071  69.5026872
  67.3778516  44.2199903  68.9803817  62.2845984  48.0307339  68.2497323
  62.9591648  48.9900342  68.6221142  61.4510327  47.3644136  69.0605765
  60.9286692  46.6016399  68.6538678  61.2051518  47.7044688  70.4704488
  61.1039553  48.7838896  70.5831843  59.9032503  47.0347044  70.9524302
  59.8667340  46.2027845  70.2490988  59.9929839  46.6479261  71.9675413
  58.6019504  47.8716040  70.8312456  58.5852754  48.5595407  71.6765655
  58.4772562  48.6839507  69.4932134  58.4933922  47.9966053  68.6474033
  57.5396939  49.2398941  69.4911051  59.3120053  49.3800394  69.4110247
  57.4053103  47.0204025  71.1064575  57.4721229  46.6141425  72.1157089
  56.5016271  47.6232929  71.0171212  57.3679274  46.2018919  70.3876099
  62.3762013  47.2844824  71.2943732  62.8716028  46.1772174  71.1197177
  62.8507316  48.1743093  72.1428938  62.4238861  49.0896716  72.1391498
  64.0128797  47.9548349  73.0028279  64.5672661  47.0531953  72.7424416
  64.9868863  49.1615619  72.9728300  64.4321296  50.0620535  73.2363812
  66.1351302  48.9695320  73.9510455  66.6906710  48.0694216  73.6878412
  66.7997412  49.8322906  73.9058761  65.7392323  48.8690354  74.9616230
  65.5111981  49.4308033  71.5589633  64.6740782  49.6492348  70.8959248
  66.1902456  50.2832096  71.5789005  66.0428899  48.5518223  71.1945499
  63.5247629  47.6217493  74.4183808  63.7530720  46.5170233  74.8821743
  62.8189578  48.5509455  75.0810721  62.6735920  49.4546304  74.6540807
  62.3096860  48.3336018  76.4397806  61.9076440  47.3240470  76.5249892
  63.4448646  48.5047468  77.4829445  63.0396854  48.2334137  78.4577817
  64.2436757  47.8125916  77.2166327  63.9968380  49.9142974  77.5404715
  64.4450749  50.1303266  76.5706695  63.1571013  50.5881831  77.7102431
  65.0218223  50.1105190  78.6200961  64.6558380  49.7261799  79.5721664
  65.9542527  49.6091122  78.3607425  65.2834325  51.5415583  78.7622009
  64.6689802  52.0629141  79.3710817  66.2508430  52.1940022  78.1290250
  67.0933309  51.5397849  77.3332342  66.9957440  50.5419950  77.2107917
  67.8264417  52.0440711  76.8553811  66.4022912  53.5024321  78.3051777
  65.7784326  54.0012149  78.9233332  67.1405567  53.9920804  77.8200929
  61.1452831  49.2673929  76.7574676  61.0250155  50.3176679  76.1300186
  60.3197168  48.8903386  77.7696155  60.5111205  48.0002809  78.2069496
  59.1894143  49.6853738  78.2723293  58.5593772  50.0093635  77.4439676
  58.3389920  48.8303686  79.2330364  58.3850298  47.8074074  78.8594992
  58.8256037  48.8832307  80.2069536  56.8713631  49.2588881  79.3707694
  56.8608493  50.2759157  79.7627454  56.4308751  49.2497419  78.3737795
  56.0496199  48.3362562  80.3067959  56.6216541  48.2337676  81.2289520
  55.1134970  48.8538806  80.5161718  55.7502248  46.9573338  79.7406284
  55.2693281  47.0913126  78.7716658  56.6992048  46.4382813  79.6060155
  54.8612481  46.1476405  80.6303891  53.9816844  46.6282269  80.7549050
  54.6949931  45.2450046  80.2088352  55.3068605  46.0230142  81.5281625
  59.7806881  50.8737436  79.0127337  60.7509778  50.6982370  79.7542864
  59.2565852  52.0778373  78.7525405  58.5684222  52.1185361  78.0143843
  59.7013627  53.3408494  79.3618215  60.3015646  53.2042306  80.2613726
  60.4798232  54.2520848  78.3469234  60.6173431  55.2326943  78.8025479
  61.8546265  53.6579391  77.9823572  61.7178870  52.6774559  77.5262259
  62.3612089  54.3181387  77.2783604  62.4583405  53.5574810  78.8843199
  59.6214837  54.5848257  77.0890709  59.6782635  53.7107406  76.4403397
  58.5976337  54.7089600  77.4418049  60.0375635  55.8068504  76.3199759
  61.0612224  55.6832531  75.9664989  59.3731215  55.9435228  75.4667838
  59.9805947  56.6814726  76.9679654  58.5151501  54.0961764  80.0297211
  58.7003042  55.1984293  80.5550843  57.3159990  53.5050122  79.9708861
  57.2570489  52.6053983  79.5155631  56.0921512  54.0832644  80.5249168
  56.2807671  54.2691986  81.5822491  55.9306733  55.0318675  80.0128852
  54.8428963  53.2285561  80.3882350  54.9176815  52.0687349  79.9637600
  53.6770817  53.8118465  80.7697671  53.7638818  54.7397321  81.1591170
  52.3393685  53.1820762  80.7503544  52.2713952  52.4868548  79.9136071
  52.0889100  52.4102505  82.0496375  52.3013642  53.0842888  82.8794777
  51.0353831  52.1313373  82.0693483  52.8905391  51.2420277  82.1711134
  52.6910313  50.8018866  83.0006146  51.1988959  54.2043940  80.4884585
  51.4692909  55.3699700  80.1719587  49.9497577  53.7401179  80.6077546
  49.8607749  52.7653698  80.8568482  48.7264437  54.5204418  80.4090432
  48.6905544  55.2905888  81.1795527  48.7842691  54.9914034  79.4277426
  47.4590641  53.6876453  80.4834736  47.5196577  52.4808325  80.7609212
  46.2933505  54.3348630  80.2403336  46.3436889  55.3307992  80.0800948
  44.9612255  53.6942192  80.2574111  44.8292912  53.1431543  81.1885502
  43.8520487  54.7516169  80.1514349  42.9081020  54.2415609  80.3435460
  44.0354759  55.4837076  80.9378812  43.7857097  55.4130578  78.8948773
  43.0717233  56.0546519  78.9083016  44.8321389  52.6571533  79.1184731
  44.2904219  51.5599766  79.3100612  45.3524605  53.0439463  77.9409021
  45.7088653  53.9879081  77.9857473  45.4108269  52.3401060  76.6582489
  44.4299802  51.9525918  76.3828005  45.8721903  53.3525752  75.5641725
  45.8438996  52.8932257  74.5760952  45.1975908  54.2084644  75.5858311
  47.2798150  53.9026631  75.7486401  47.5298795  54.9433925  76.6367656
  46.6967989  55.3888819  77.1804714  48.8345015  55.4210075  76.8373626
  49.0121607  56.2407828  77.5334276  49.8918204  54.8539110  76.1544729
  50.9072195  55.2163886  76.3147052  49.6594394  53.8259348  75.2676313
  50.4936574  53.3779758  74.7277117  48.3557169  53.3556327  75.0583331
  48.1745491  52.5503764  74.3464059  46.3501947  51.0939854  76.7063152
  45.9581907  50.0093602  76.2588521  47.5643964  51.2886264  77.2494248
  47.7203276  52.2153438  77.6195325  48.6477694  50.3099550  77.3501729
  48.3694803  49.5720380  78.1025909  48.7529698  49.8194773  76.3824623
  49.9806261  50.9328428  77.7369248  50.0144569  51.8468170  78.5645434
  51.0952157  50.4677236  77.1262407  51.0005501  49.7149131  76.4595968
  52.4611487  50.9352685  77.4703249  52.4123949  51.6146369  78.3213130
  53.3745977  49.7402921  77.8424490  53.6207930  49.2418559  76.9048731
  54.2829625  50.1479644  78.2860443  52.7521508  48.7431266  78.7950512
  52.4289508  49.1381734  79.9400865  52.6019265  47.5646355  78.4033354
  53.1765315  51.7972030  76.4189628  52.7621112  51.8713965  75.2664528
  54.2712507  52.4415734  76.8548881  54.4369266  52.3915601  77.8499506
  55.1543908  53.2821879  76.0460212  54.8484334  53.2205023  75.0016629
  55.1667696  54.7619719  76.4923655  55.5480087  54.8295516  77.5112816
  56.0680699  55.5777681  75.5537285  55.6871723  55.5110435  74.5346282
  56.0746976  56.6205403  75.8710343  57.0828973  55.1815102  75.5884281
  53.7200776  55.3173344  76.4915471  53.4946631  55.5734356  75.4563171
  53.0797259  54.4945387  76.8094408  53.4834441  56.4568213  77.3275383
  54.1231510  57.2802307  77.0099353  52.4387103  56.7569117  77.2464448
  53.7082162  56.2013341  78.3630593  56.5349279  52.6350049  76.0677569
  57.0452786  52.3141256  77.1374389  57.1089188  52.4125189  74.8685390
  56.5881935  52.7227498  74.0606397  58.3936386  51.7559342  74.6529572
  58.8214572  51.4297403  75.6009382  58.1794152  50.5282732  73.7649718
  57.6322436  50.8258854  72.8704723  59.1845418  50.2113526  73.4867957
  57.4584151  49.3825968  74.4385655  56.0664647  49.3080043  74.4345762
  55.4991041  50.1054891  73.9547644  55.3985856  48.2378260  75.0301237
  54.3093158  48.1983097  75.0244926  56.1263695  47.2229908  75.6342083
  55.4824570  46.1523295  76.2206799  54.5263272  46.2076908  76.1547201
  57.5103191  47.2794729  75.6478930  58.0864540  46.4966294  76.1411729
  58.1660375  48.3418984  75.0281378  59.2553469  48.3676992  74.9991634
  59.4557029  52.6245768  73.9901538  59.1374272  53.5233001  73.2133669
  60.7247769  52.3089056  74.2612866  60.9063786  51.5944775  74.9517304
  61.8522724  52.9052041  73.5783965  61.6211896  53.9445818  73.3451714
  63.1206189  52.8664493  74.4377714  62.9322906  53.5810819  75.2389780
  63.2138968  51.8654450  74.8589480  64.4288568  53.2422064  73.7108400
  64.5650668  52.5491209  72.8806713  64.4072257  54.6526875  73.1877338
  64.2715036  55.3464251  74.0174364  65.3497647  54.8686803  72.6846748
  63.5847140  54.7662849  72.4815678  65.6115951  53.0771469  74.6127749
  65.6791366  52.0389695  74.9379291  66.5199704  53.3487452  74.0750111
  65.4983528  53.7233332  75.4832451  62.0324198  51.9985745  72.3492490
  62.0458101  50.7828227  72.4901831  62.0851092  52.5737592  71.1489239
  61.9680425  53.5732253  71.0625402  62.2588503  51.7887018  69.9290039
  62.5368273  50.7620511  70.1673659  60.9721926  51.7677099  69.1107269
  60.6859457  52.7882789  68.8565584  61.1321167  51.1972119  68.1958189
  60.1775395  51.3026142  69.6940893  63.4149075  52.3905501  69.1301852
  63.7846038  53.5454398  69.3365068  64.0121139  51.5909265  68.2641734
  63.7739600  50.6094129  68.2678136  65.1197832  52.0287821  67.4288308
  65.2175934  53.1101245  67.3327524  66.4728567  51.4257307  67.9348693
  66.6097553  51.7456131  68.9678428  66.5172249  49.9127188  67.8649153
  66.3808512  49.5920758  66.8321080  67.4816726  49.5597224  68.2300657
  65.7211116  49.4964387  68.4821782  67.6780377  52.0586998  67.2415274
  67.8800678  51.4538415  66.3575415  67.3695043  53.0580473  66.9345891
  68.9508908  52.1560963  68.0969630  69.2603178  51.1570283  68.4039124
  69.7467410  52.6192105  67.5136563  68.7497533  52.7612326  68.9809617
  64.8115804  51.7610684  65.9469649  64.3707426  50.6659250  65.5997346
  64.9831694  52.7847251  65.0893069  65.2200100  53.6858198  65.4792225
  64.8134041  52.6786091  63.6355173  63.8767458  52.1642971  63.4204508
  64.7794054  54.0687169  62.9617294  63.9323514  54.6104878  63.3825420
  65.7027495  54.5958077  63.2019604  64.6228736  54.0232942  61.4307958
  65.0916658  53.1300452  60.7430115  63.9770723  54.9916729  60.8514225
  63.8595367  54.9870596  59.8482955  63.5959769  55.7439808  61.4072101
  65.9799087  51.8439953  63.1184527  67.1218811  52.3131206  63.1091474
  65.7023200  50.5750069  62.6989958  64.7333356  50.2904294  62.7125604
  66.7053351  49.5978837  62.2828086  67.4755301  49.5001527  63.0478887
  66.0322908  48.2113556  62.0752389  65.2221876  48.3681792  61.3630322
  66.7895297  47.5677763  61.6274723  65.4677378  47.5318262  63.3645689
  66.3019297  47.5009987  64.0654786  64.7137585  48.2298518  63.7284022
  64.8579952  46.1469612  63.2429767  63.8914768  45.9371338  62.4855021
  65.3859959  45.2446408  63.9256811  67.3995721  50.0420830  61.0175794
  68.4590277  49.4098333  60.6502153  66.9599074  51.0914041  60.2991879
  66.0671447  51.5142144  60.5096767  67.6705381  51.5355282  59.1079941
  68.3228914  50.7579264  58.7106657  66.7493492  52.0102575  57.9978008
  67.3525736  52.1236540  57.0970445  65.6083014  51.0647394  57.7222024
  65.0043180  50.9511954  58.6224310  64.9901033  51.4649728  56.9186208
  66.0041632  50.0933263  57.4259753  66.2966602  53.2965817  58.3360975
  65.7105780  53.6207109  57.6483126  68.7571925  52.5784639  59.3831877
  69.6400749  52.7240627  58.5379057  68.7389880  53.2628400  60.5381335
  68.0306713  53.0796529  61.2344304  69.6749883  54.3619289  60.7735759
  70.6445226  54.1492668  60.3231570  69.1002993  55.6349389  60.1260204
  69.8194469  56.4537670  60.1471485  68.9105547  55.3452852  59.0924838
  67.8179081  56.1092766  60.7326196  67.5489671  55.9236370  61.9112450
  67.0333545  56.8184734  59.9663518  66.1555465  57.1627956  60.3282845
  67.3080996  57.0192915  59.0154112  70.0806053  54.6653018  62.2582471
  70.8890923  55.5763776  62.4840764  69.5067501  53.9489034  63.2295769
  68.8172174  53.2548245  62.9787814  69.8309395  54.1231236  64.6410696
  69.7431318  53.1385965  65.1005208  70.8699812  54.4502177  64.6798153
  68.9790091  55.1019835  65.4109564  69.1395912  55.2181309  66.6244461
  68.0555543  55.7980281  64.7287986  68.0215961  55.6593815  63.7289370
  67.1490261  56.7717225  65.3221709  67.7168915  57.5869987  65.7704485
  66.2193012  57.3566706  64.2355774  66.8679583  57.7383990  63.4471444
  65.6320213  56.5230932  63.8504138  65.2780474  58.4698283  64.7054786
  65.0050369  58.2393457  65.7352571  65.8523065  59.3959629  64.6809772
  64.0166783  58.6335787  63.8714295  63.6209017  57.6819451  63.1495415
  63.4177610  59.7289023  63.9454725  66.3420023  56.1344219  66.4426381
  65.8312381  55.0391025  66.2619139  66.2775395  56.8038223  67.6154973
  66.8468434  57.6346496  67.6911177  65.5009028  56.3812893  68.7910054
  65.2881462  55.3156086  68.7063989  66.2380436  56.6263663  70.0933950
  66.7700113  57.5740344  70.0095218  65.5008842  56.6936732  70.8934986
  67.2149712  55.5305524  70.4046402  66.6336992  54.6084806  70.4019613
  67.9295264  55.5113794  69.5817536  67.9602768  55.6531998  71.7171459
  67.6732037  56.5776080  72.5164483  68.8549583  54.8066922  71.9356660
  64.1669894  57.0908184  68.8077560  64.0976743  58.2931737  68.5825488
  63.1056388  56.3327167  69.0426912  63.2460932  55.3395260  69.1607765
  61.7391340  56.8441464  69.0530044  61.6749079  57.9112260  69.2658782
  60.9910673  56.5560263  67.7040003  59.9409733  56.8173283  67.8348562
  61.5734318  57.3571421  66.5427191  62.6234566  57.0960208  66.4109450
  61.0247060  57.1258296  65.6297595  61.4886262  58.4225158  66.7569349
  60.9499761  55.0702418  67.3816946  60.4300804  54.5391995  68.1790683
  60.4231164  54.9166580  66.4399247  61.9672420  54.6885146  67.2947743
  60.9559494  56.2686891  70.2449216  61.4095806  55.3354574  70.9076337
  59.7607624  56.8332327  70.4866437  59.4957190  57.6485968  69.9527592
  58.8310752  56.3311503  71.4853458  59.2648367  55.5739297  72.1384669
  58.2845091  57.4525797  72.3415786  57.8386330  58.2144239  71.7021352
  57.5265184  57.0576119  73.0180037  59.0940826  57.8947029  72.9222824
  57.7106191  55.6533296  70.6893821  57.3261047  56.1304629  69.6103777
  57.2475129  54.5039698  71.1935822  57.7245023  54.1363513  72.0044072
  56.1796444  53.7103712  70.6021449  55.6456608  54.2742059  69.8372585
  56.7217896  52.3942722  69.9638597  57.3562971  51.8927789  70.6946155
  55.5950824  51.4682648  69.5539793  54.9603654  51.9689296  68.8228363
  56.0108794  50.5621135  69.1134078  55.0021651  51.2065288  70.4303611
  57.5993729  52.6892414  68.7616822  58.4471648  53.3003909  69.0712741
  57.9625825  51.7529975  68.3378593  57.0196818  53.2265329  68.0110978
  55.1221913  53.4574580  71.6924691  55.3961180  52.7680611  72.6777209
  53.9355182  54.0598215  71.5246205  53.8340177  54.7061444  70.7551638
  52.7783181  53.8280075  72.3951555  53.1383879  53.6142312  73.4015096
  51.8178467  55.0430554  72.4603813  51.4428340  55.2018664  71.4493206
  50.9927549  54.7568010  73.1125945  52.4440018  56.3203778  72.9716095
  52.5434870  56.2558299  74.0551394  53.4307795  56.4341640  72.5228060
  51.5927838  57.5071419  72.6168309  52.1833148  58.1625766  71.9766923
  50.7267133  57.1438105  72.0636477  51.1290526  58.2735895  73.8284795
  51.9864163  58.4169401  74.4861105  50.7618731  59.2439529  73.4943039
  50.0531593  57.5650314  74.5660139  50.3933286  56.6660243  74.8761281
  49.7757115  58.1145205  75.3667538  49.2584504  57.4324787  73.9569435
  52.0766476  52.6232610  71.7646119  51.7925485  52.6128756  70.5600078
  51.8622711  51.5891613  72.5753958  52.1662183  51.7056791  73.5315020
  51.2466995  50.3255327  72.1959495  51.0530835  50.2887140  71.1239158
  52.2374259  49.1884738  72.5601516  53.1647623  49.7121764  72.7922766
  51.8441805  48.7279598  73.4664545  52.5094695  48.1142150  71.5247477
  51.5678087  47.6177154  71.2905170  53.1097038  48.6979884  70.2449382
  54.0516837  49.1942851  70.4783100  53.2897287  47.8961866  69.5288336
  52.4161004  49.4201478  69.8142405  53.4475980  47.0955125  72.0865332
  53.0022320  46.6390814  72.9705124  53.6396381  46.3261539  71.3386634
  54.3861258  47.5772494  72.3607485  49.9247236  50.1810016  72.9642070
  49.8903896  50.3760160  74.1831445  48.8418298  49.8760413  72.2473708
  48.9458881  49.7606400  71.2493960  47.5148050  49.7077515  72.8281502
  47.5942345  49.5858990  73.9084012  46.6499514  50.9387464  72.5364882
  47.1011037  51.7650883  73.0857786  46.7360191  51.1248015  71.4659389
  45.1811392  50.8214574  72.9138954  44.8768446  49.8458285  72.5348785
  45.0726801  50.8393423  73.9983381  44.3059282  51.8965223  72.3011718
  43.8074854  51.7050188  71.1652549  44.1756187  52.9631761  72.9406419
  46.8786477  48.4963696  72.2374186  46.8061322  48.3815664  71.0157755
  46.3674401  47.6065629  73.0885617  46.4404038  47.7283910  74.0885285
  45.6982117  46.4258523  72.5886848  46.3668621  45.8669338  71.9339972
  45.2897899  45.5290315  73.7457820  46.1683502  45.3374227  74.3618317
  44.5376863  46.0498282  74.3384127  44.7586540  44.2981361  73.2848915
  44.5106274  43.7551333  74.0367098  44.4592941  46.8527958  71.8001372
  43.8307130  47.8779074  72.0906850  44.1750158  46.1122979  70.7337382
  44.8204884  45.3763209  70.4851372  42.9528363  46.2513773  69.9539157
  42.7476438  47.3075386  69.7792202  43.0896281  45.5450326  68.5926801
  43.3535082  44.5052466  68.7858424  42.1181458  45.5873346  68.1002040
  44.1442140  46.1776554  67.6909757  43.7823244  47.1778885  67.4529199
  45.0864387  46.2523905  68.2338654  44.3881030  45.4350988  66.4036988
  45.5036746  44.9857388  66.1260864  43.3679306  45.3211677  65.5681912
  43.4879229  44.8308310  64.6933923  42.4741589  45.7250881  65.8092760
  42.0592680  45.4716276  70.9147981  42.5359797  44.4820525  71.4804808
  40.8598953  45.9624446  71.2291622  40.5486341  46.8252356  70.8063059
  40.0020211  45.3354763  72.2495071  38.9959973  45.7498049  72.1835751
  39.9212245  43.8182127  72.0460440  40.9406768  43.4327605  72.0304628
  39.3878235  43.3989604  72.8991623  39.2028022  43.4191825  70.7462958
  38.2307049  43.9121778  70.7371664  39.8007826  43.7806276  69.9097082
  39.0099564  41.9178002  70.6190678  38.6846547  41.5195710  71.5801564
  38.2455314  41.7211177  69.8673566  40.3208752  41.2411169  70.2033518
  41.0854235  41.5219266  70.9277221  40.1655724  40.1628377  70.2393268
  40.7664917  41.6349665  68.8303367  40.9108701  42.6340346  68.7969066
  41.6310098  41.1622374  68.6084453  40.0583720  41.3744641  68.1589174
  40.5026297  45.6906904  73.6781596  40.4067420  44.8886227  74.6124245
  41.0373950  46.9185793  73.8245286  41.1426978  47.4844653  72.9945986
  41.4599268  47.4817676  75.1054625  41.8285086  46.7379038  75.8118005
  42.5385545  48.5475056  74.9111280  42.1806214  49.3044269  74.2132355
  42.7645880  49.0153759  75.8693068  43.4406224  48.0836799  74.5120811
  40.2018076  48.1084058  75.7108669  39.3198799  48.5702511  74.9745407
  40.1176264  48.0822255  77.0461752  40.8697303  47.6082302  77.5255158
  39.0182852  48.6206698  77.8439526  38.0721163  48.1748064  77.5372449
  39.2608716  48.2887529  79.3394826  39.4206443  47.2116120  79.3878498
  40.1796515  48.8047015  79.6183027  38.1393081  48.6829173  80.3086032
  38.5336501  48.5710375  81.3185924  37.9088035  49.7320203  80.1232589
  36.8721635  47.8522271  80.1641695  36.8487106  47.3870528  79.1786940
  36.8514177  47.0781887  80.9313289  35.6845258  48.6924958  80.3140837
  35.3256195  48.8223294  81.2491927  35.0641223  49.2999838  79.3058819
  35.4899707  49.1379786  78.0594320  36.2900504  48.5498629  77.8747909
  35.0120234  49.6035476  77.3012027  34.0066898  50.0611097  79.5343329
  33.6692674  50.1812003  80.4786975  33.5415822  50.5186673  78.7633499
  38.8744284  50.1372545  77.6263179  37.7543142  50.6265181  77.4478710
  40.0200752  50.8653505  77.6032384  40.8871113  50.3822837  77.7903057
  40.0572718  52.3213069  77.4389876  39.0544686  52.6984081  77.2382901
  40.5852251  52.9872194  78.7196983  41.6268804  52.6947855  78.8521214
  40.5140574  54.0745996  78.6944111  39.8595319  52.5413951  79.9397405
  38.5924248  53.0099019  80.2340973  38.2391094  52.3990646  81.3501613
  37.2578540  52.6332320  81.7629596  39.1965064  51.5721014  81.7803008
  39.1897668  50.9945557  82.6088509  40.2277059  51.6405043  80.8763945
  41.1163009  51.0247990  81.0157041  40.8555584  52.7750440  76.1997724
  41.9948362  53.2599113  76.3562709  40.2719172  52.6485088  74.9657619
  39.0908494  52.0023495  74.5756045  38.2829514  52.3904150  75.1959321
  39.2182571  50.9374559  74.7702014  38.8894359  52.2999939  73.1065543
  38.3277408  53.2243414  72.9717237  38.3646533  51.4814142  72.6139777
  40.3207605  52.4318581  72.5734062  40.4359003  53.0672901  71.6953015
  40.7468560  51.4496596  72.3688866  41.0229173  53.0640314  73.7643574
  42.0104549  52.6081356  73.8352575  41.1717712  54.5797605  73.5963789
  40.2254936  55.3118572  73.8790415  42.3659060  55.0496339  73.1610870
  43.1203206  54.3842513  73.0704006  42.6604922  56.4654141  72.9445155
  41.7682862  56.9692472  72.5727363  43.1040684  57.1508972  74.2575448
  42.9887482  58.2236600  74.1026885  42.4111705  56.8194063  75.0309181
  44.5463310  56.8490014  74.6982563  44.6430647  55.8006444  74.9805525
  45.1888978  57.0550130  73.8422370  44.9967032  57.7020836  75.8542687
  44.3434417  57.7808248  76.9016097  46.1533110  58.3280171  75.7011788
  46.5082438  58.9151798  76.4423698  46.6753498  58.2154524  74.8439122
  43.6789391  56.7434601  71.8123240  43.7353585  57.8731430  71.3358489
  44.4708324  55.7428271  71.3970729  44.3635800  54.8680103  71.8903192
  45.5381199  55.8519439  70.4025132  46.2488646  56.6254054  70.6935432
  46.2773154  54.5240766  70.3036016  45.8468526  53.9337043  71.1124659
  46.0717165  54.0375177  69.3501397  47.7567997  54.6329817  70.4987909
  48.1657952  55.2679026  69.7128527  48.0874006  55.2253488  71.8463455
  47.6791012  54.5906899  72.6328559  49.1695233  55.2918778  71.9589733
  47.6527712  56.2220664  71.9221854  48.4116019  53.3179651  70.3067952
  48.2165569  52.9584373  69.2964504  49.4866451  53.4219077  70.4536939
  48.0140471  52.6046747  71.0287827  45.1098305  56.3509992  69.0014775
  45.7870102  57.2245309  68.4288346  43.9963108  55.8279112  68.4609715
  43.5014339  55.0680778  68.9057741  43.5044814  56.3160812  67.1778773
  44.3068504  56.2620308  66.4420908  42.3201694  55.4854992  66.6727252
  42.7554420  54.4951670  66.5390128  41.5583109  55.4448664  67.4511984
  41.6790571  55.9464516  65.3514364  41.3530042  56.9786684  65.4791817
  42.6400798  55.8601578  64.1732672  42.9662303  54.8280873  64.0446002
  42.1362447  56.1970633  63.2673171  43.5066056  56.4934692  64.3633991
  40.4376648  55.1679540  65.0605693  39.7194476  55.3135402  65.8674573
  40.0036439  55.5125268  64.1219550  40.6828484  54.1089663  64.9797670
  43.1072116  57.7901110  67.3293658  43.4736858  58.6060331  66.4927584
  42.3969127  58.1301131  68.4208707  42.0927559  57.3797988  69.0247054
  41.9656225  59.4865024  68.7334967  41.3946695  59.8914806  67.8979703
  41.0691147  59.5010945  70.0001233  40.2487057  58.8171053  69.7828969
  41.6375509  59.1270362  70.8516283  40.5104537  60.8715911  70.3286760
  39.5690329  61.4761360  69.5021367  39.2257637  60.9399672  68.6173832
  39.0663268  62.7411897  69.7872746  38.3305035  63.1982228  69.1256201
  39.5256953  63.4343638  70.8983153  39.0127965  64.6770479  71.1815273
  38.3494398  64.9621485  70.5488543  40.4725058  62.8582244  71.7298627
  40.8333875  63.3944215  72.6075628  40.9636420  61.5863904  71.4393242
  41.7155927  61.1320407  72.0844882  43.1830189  60.3997537  68.8801154
  43.2217549  61.4584984  68.2411716  44.1959617  59.9656323  69.6644357
  44.0709762  59.1187024  70.2003347  45.4520887  60.7068269  69.8183635
  45.2369621  61.7002699  70.2119251  46.4088321  59.9998884  70.7748827
  46.1657428  58.9375153  70.7556392  47.4199461  60.1476490  70.3955210
  46.3244555  60.5096410  72.1939817  46.0134703  61.5543062  72.2019485
  45.5651940  59.9013099  72.6854635  47.6376581  60.3692158  72.9314014
  47.9887682  59.2284239  73.3012685  48.3415466  61.3923767  73.0943172
  46.1455969  60.9244979  68.4735767  46.5767950  62.0307599  68.2068285
  46.2075097  59.8939236  67.6046351  45.8512312  58.9993087  67.9093135
  46.8347906  59.9795911  66.2743386  47.8730638  60.2945886  66.3785709
  46.8041828  58.6211908  65.5696714  47.6524238  58.5871750  64.8859833
  46.9228106  57.8527085  66.3335185  45.6050212  58.3884711  64.8471688
  45.6455375  57.5250428  64.4294968  46.1813657  61.0470409  65.4008279
  46.8801323  61.7111640  64.6372948  44.8407127  61.1910811  65.5164770
  44.3786510  60.5783523  66.1731061  44.0278982  62.1633900  64.7846532
  44.2722209  62.1236050  63.7231341  42.5419161  61.8564465  64.9551489
  42.3730775  61.6695587  66.0156514  41.9937633  62.7485458  64.6521844
  42.0605572  60.6772417  64.1558912  42.0072695  60.9434767  63.1002491
  42.7456838  59.8393052  64.2845996  40.6876250  60.2840022  64.6452642
  40.7666413  60.0378079  65.7041522  40.0282644  61.1429714  64.5207052
  40.1248595  59.1095575  63.8996284  39.7465322  59.4451807  62.9340580
  40.9123663  58.3721230  63.7443141  39.0205323  58.4967161  64.6769725
  38.2905142  59.1797504  64.8206300  38.6480538  57.7077869  64.1681007
  39.3709821  58.1852670  65.5715581  44.2785275  63.5531232  65.3130315
  44.4240021  64.5002286  64.5418775  44.2774789  63.6719427  66.6302003
  44.0130734  62.8534979  67.1596692  44.4813356  64.9093806  67.3411039
  43.8642410  65.7117936  66.9368432  44.0669261  64.6572670  68.7885435
  43.1196381  64.1380197  68.6431924  44.8067974  63.9593780  69.1805146
  43.8752306  65.7859393  69.7657035  44.7855403  65.8592855  70.3607307
  43.5931271  67.1287625  69.1015705  42.6826455  67.0563261  68.5066965
  43.4662308  67.8939289  69.8674154  44.4285059  67.3975573  68.4550475
  42.7833212  65.4503757  70.6919800  43.0334828  64.5385156  71.2342251
  42.6432521  66.2668855  71.4003539  41.8627970  65.2966648  70.1288574
  45.9200749  65.4525734  67.1398289  46.0631064  66.6640891  67.0261026
  46.9527785  64.5800566  66.9673650  46.7634241  63.6029035  67.1388759
  48.3362425  64.9777787  66.6381138  48.6158560  65.8290653  67.2587801
  49.3411811  63.8443046  66.8792299  48.7695362  62.9415949  66.6637389
  50.1780503  63.9182235  66.1847617  49.8657276  63.7818903  68.2944859
  50.7264046  64.7645493  68.7813631  51.0008231  65.5920534  68.1271224
  51.2350501  64.7031500  70.0799823  51.9009207  65.4845933  70.4461304
  50.9051568  63.6322611  70.8992755  51.3838101  63.5946746  72.1859609
  51.9293654  64.3534582  72.4055432  50.0817057  62.6190438  70.4228586
  49.8287121  61.7699877  71.0578377  49.5776388  62.6931849  69.1223200
  48.9468943  61.8926364  68.7358183  48.4485244  65.4834487  65.2070455
  49.3364189  66.2733449  64.9455012  47.5354126  65.0755407  64.2951661
  46.8449578  64.3952105  64.5789304  47.5006130  65.5666359  62.9145617
  48.4974077  65.4855511  62.4810587  46.5156753  64.7572827  62.0422894
  45.6654195  64.5075072  62.6769362  46.1880323  65.4193332  61.2407663
  47.0896174  63.4897447  61.4463810  47.8417944  63.7528241  60.7026607
  47.5525099  62.9001566  62.2377207  45.9839852  62.6726005  60.7841305
  45.1863994  62.5424552  61.5155799  45.6096627  63.2484915  59.9377667
  46.4517178  61.3205911  60.3046100  47.1449085  61.4672419  59.4763101
  46.9670966  60.8210117  61.1249174  45.3111776  60.4822648  59.8529842
  44.8337407  60.9448082  59.0925847  45.6555828  59.5862510  59.5389071
  44.6689472  60.3458986  60.6204759  47.0676153  67.0267635  62.8932230
  47.5967611  67.8151689  62.0989216  46.0500762  67.3618129  63.7138904
  45.5913757  66.6131967  64.2131570  45.5098335  68.7087916  63.8401249
  45.3893080  69.2109490  62.8802235  44.1296791  68.6566399  64.5785279
  44.2659849  68.0882064  65.4985303  43.5788166  70.0514805  64.9153602
  43.4418000  70.6203832  63.9957533  42.6210297  69.9508851  65.4258753
  44.2824165  70.5737420  65.5636575  43.0900292  67.8534329  63.7624233
  42.4860451  68.5825744  63.2223708  43.6515882  67.2487706  63.0502895
  42.1780547  66.9498703  64.5889570  41.6157881  67.5539204  65.3010523
  41.4850730  66.4296143  63.9277389  42.7813320  66.2201177  65.1289731
  46.5612147  69.6271586  64.5463272  46.7658563  70.7608094  64.1074744
  47.2378358  69.1197328  65.5963995  47.0102099  68.1842578  65.9016409
  48.1879183  69.8978241  66.3931682  47.8650875  70.9382589  66.4302480
  48.2770139  69.3586702  67.8327751  48.5696412  68.3243358  67.6521624
  49.0674748  69.8684629  68.3835773  46.9808766  69.3873018  68.6545398
  46.1619997  69.0241206  68.0335399  47.1039434  68.5306358  69.8617203
  47.9223774  68.8935031  70.4834856  46.1739937  68.5658599  70.4292180
  47.3058984  67.5030051  69.5595787  46.5554707  70.8107036  68.9946739
  46.3883492  71.3702633  68.0743137  45.6341226  70.7858736  69.5765695
  47.3392580  71.2954374  69.5767474  49.5882017  70.0310819  65.7962666
  50.3835042  70.8375770  66.2868109  49.8932166  69.2796843  64.7409497
  49.2540593  68.5624564  64.4292427  51.2084536  69.3553670  64.1122647
  51.9772875  69.2210281  64.8731501  51.3880546  68.2737532  63.0367573
  50.5745841  67.5572328  63.1506141  51.3100781  68.7596632  62.0641776
  52.7450261  67.5338535  63.1365011  52.6987335  66.6149625  62.5520379
  53.4825269  68.2060393  62.6979116  53.1837918  67.1877727  64.5537554
  53.9998508  67.9081564  65.1807108  52.6197948  66.1099279  65.1039518
  52.8736672  65.8340575  66.0417928  51.9418476  65.5753599  64.5798087
  51.5232516  70.7551256  63.5864282  50.6503206  71.4294685  63.0073305
  52.7418766  71.2080327  63.9122890  53.3520605  70.6096934  64.4505872
  53.2312499  72.5273156  63.5260345  54.1439799  72.3845515  62.9475525
  52.4712881  72.9900415  62.8963980  53.5264507  73.4414041  64.6929123
  54.3683907  74.3360764  64.5812185  52.8280078  73.2121250  65.8019473
  52.1348312  72.4777206  65.7859583  53.0091768  73.9604834  67.0319699
  52.9508954  75.0311147  66.8358801  52.2467784  73.6829168  67.7598469
  54.3614948  73.6405250  67.5956519  54.8932268  72.5572943  67.3400244
  54.9566953  74.5741356  68.3271481  54.6080567  75.5177945  68.4169159
  56.2522711  74.2502430  68.9356724  56.8348449  73.5528023  68.3337726
  57.1160747  75.5147258  69.2064628  58.1551125  75.2050067  69.3185964
  57.0057269  76.5307345  68.0584359  55.9669724  76.8412918  67.9459899
  57.6224350  77.4011564  68.2823494  57.3494062  76.0712990  67.1316645
  56.7698738  76.1523326  70.5262023  56.9439060  75.4389327  71.3317304
  57.3941427  77.0325366  70.6799196  55.7206470  76.4476572  70.5234922
  55.8931707  73.4176401  70.1970072  54.7716304  73.5523297  70.7321073
  56.7549202  72.5190146  70.6281682  57.6530799  72.3305060  70.2064182
  56.3671023  71.7468978  71.8041699  57.2612529  71.2356446  72.1608405
  56.0310503  72.4587025  72.5581609  55.2716931  70.7212516  71.5697247
  54.7311571  70.1817739  72.5258600  54.9331868  70.4338074  70.3008692
  55.3307910  71.0162444  69.5778357  53.9764089  69.3927891  69.9079749
  53.5427998  68.9511997  70.8052381  52.8381524  69.9234582  68.9894568
  53.2765725  70.2878803  68.0604333  51.8377706  68.8220477  68.6793242
  51.3985573  68.4574160  69.6078909  51.0509651  69.2157684  68.0358789
  52.3453345  68.0019469  68.1714733  52.1182461  71.1030376  69.6514996
  52.8595470  71.8907727  69.7858394  51.3536118  71.4399377  68.9515481
  51.4670179  70.7781200  71.0025781  52.2311542  70.4415693  71.7032415
  50.9814737  71.6709480  71.3965379  50.7252201  69.9907322  70.8689503
  54.8523572  68.3143186  69.2437236  55.4791948  68.6405193  68.2352913
  54.9998968  67.0714144  69.8146109  54.4397756  66.5166999  70.9682993
  53.3805792  66.7739248  70.9745095  54.9302427  66.9782077  71.8253592
  54.6745635  65.0242288  70.9043811  53.8623031  64.5263662  70.3747916
  54.7664780  64.6034836  71.9056935  55.9975614  64.9070752  70.1378738
  56.1436791  63.9782820  69.5864285  56.8407693  65.0664909  70.8099502
  55.8805727  66.0714101  69.1672622  56.8678231  66.5270171  69.0907298
  55.4243329  65.6077508  67.7810013  54.2327390  65.6203003  67.4387273
  56.4007916  65.2174673  66.9843671  57.3507413  65.3254907  67.3099834
  56.1885114  64.7269535  65.6428224  55.3447681  65.2413974  65.1828833
  57.4504292  64.9860259  64.7883248  57.6419443  66.0573238  64.7271535
  58.3076768  64.4895935  65.2430572  57.3634935  64.4884739  63.3885458
  56.6208988  65.1580964  62.4257931  56.7625003  64.4516189  61.3127246
  56.2511465  64.8116183  60.4199667  57.5409089  63.3836351  61.5060472
  57.8108600  62.6838037  60.8296876  57.9273047  63.3956495  62.8253410
  58.5718342  62.6060755  63.2116774  55.8003844  63.2328434  65.7044761
  56.3789687  62.4523416  66.4782436  54.8017448  62.8601583  64.8901280
  54.3098266  63.5886431  64.3927090  54.3214763  61.4896915  64.7613841
  54.7112297  60.8143600  65.5230394  52.7648304  61.4338028  64.7658553
  52.4032813  62.1165108  63.9968999  52.2227416  60.0239214  64.4937003
  52.5835132  59.3406955  65.2625609  51.1330257  60.0439611  64.5084764
  52.5661593  59.6844151  63.5165110  52.1884880  62.0314967  66.0682501
  52.4910751  63.0785123  66.0509266  51.1070298  61.9643679  65.9497539
  52.6031433  61.3925618  67.4319118  53.6844965  61.4597380  67.5513373
  52.1142551  61.9258462  68.2472003  52.3004529  60.3455923  67.4501635
  54.9332298  60.8765204  63.5136566  54.7969330  61.4436403  62.4268796
  55.6145780  59.7265098  63.6738601  55.6828472  59.3413712  64.6050459
  56.2610450  59.0077676  62.5776275  56.6695107  59.7279090  61.8686485
  57.4097069  58.1069901  63.0834187  56.9265436  57.3095994  63.6480607
  57.8683792  57.6901100  62.1867968  58.4670247  58.7514110  63.9327023
  57.9586813  59.2882548  64.7336309  59.0734605  57.9524702  64.3593536
  59.3564040  59.7068181  63.1718847  59.6799470  59.2454233  62.2388607
  58.8096755  60.6239393  62.9526218  60.5402581  60.0444801  63.9631899
  61.4078248  59.5823906  63.7310248  60.5386825  60.9292026  64.9544903
  59.4246265  61.5667709  65.2873507  58.5693888  61.3791916  64.7838802
  59.4364670  62.2370233  66.0428116  61.6565381  61.1721268  65.6315372
  62.5061537  60.6823180  65.3899988  61.6511363  61.8453918  66.3843876
  55.2974474  58.1208014  61.8396601  55.4089702  58.0108820  60.6236805
  54.4461749  57.3789509  62.5768045  54.4231740  57.5278740  63.5754998
  53.5504663  56.3729382  62.0045025  53.0517819  56.7650621  61.1181324
  54.3819727  55.1301562  61.5960102  55.2308646  55.3716767  60.9563621
  54.7435839  54.7269130  62.5419131  53.6327870  54.0218510  60.9150745
  53.2666057  53.9696040  59.6009483  53.5041416  54.8387025  58.9874793
  52.6481743  52.7710407  59.3303658  52.2903586  52.4892115  58.4289005
  52.6181596  52.0101451  60.4741818  52.1020864  50.7271024  60.6991949
  51.6164240  50.2100846  59.8715940  52.2429804  50.1953535  61.9655791
  51.8614893  49.1958298  62.1741860  52.8652786  50.9099985  62.9909524
  52.9626552  50.4851601  63.9900168  53.3783888  52.1814990  62.7702981
  53.8306496  52.7043276  63.6130384  53.2593641  52.7520406  61.4879810
  52.4903965  55.9378397  63.0066015  52.7682572  55.7610563  64.1958778
  51.2749088  55.7475198  62.5052611  51.0865540  56.0969355  61.5765360
  50.1821040  55.1623615  63.2531624  50.6002310  54.7413064  64.1674827
  49.0462627  56.1439917  63.6345806  49.5359281  56.8229341  64.3326953
  48.6491245  56.7125740  62.7936909  47.9126371  55.4266613  64.3392359
  48.0032834  55.0999650  65.6893254  48.8551057  55.4689445  66.2605980
  47.0341240  54.3190984  66.3113853  47.1248012  54.0630535  67.3669991
  45.9450165  53.8750909  65.5830061  44.9737565  53.1263840  66.1832636
  45.1453437  52.9660132  67.1140905  45.8361360  54.1776153  64.2404820
  44.9862399  53.8143222  63.6627318  46.8156244  54.9486668  63.6258366
  46.7339514  55.1899802  62.5660265  49.6670997  53.9902508  62.4394942
  49.4427692  54.1141866  61.2255874  49.4982221  52.8617335  63.1050639
  49.7195007  52.8003476  64.0886120  48.9898029  51.6789926  62.4402467
  48.0265618  51.9180142  61.9895424  49.6928559  51.3868540  61.6602012
  48.8131291  50.5366427  63.3887456  48.7947973  50.7302242  64.5977899
  48.6860590  49.3461625  62.8330476  48.7014854  49.2995687  61.8242412
  48.4955290  48.1069490  63.5801006  48.4582158  48.3304477  64.6462878
  47.1788416  47.3998226  63.1765135  47.2063306  47.2888195  62.0925292
  47.2005428  46.4148131  63.6427595  45.8927733  48.1289388  63.5827820
  45.0625363  47.4340267  63.4566685  45.9739457  48.4105165  64.6326520
  45.6099252  49.3732461  62.7687720  45.6327924  49.3622601  61.5333400
  45.3442613  50.4785796  63.4489371  45.1483745  51.3372749  62.9545969
  45.3388272  50.4575013  64.4587032  49.6663710  47.1863289  63.3287390
  50.2369298  47.1936262  62.2348294  50.0295880  46.4056749  64.3489247
  49.5501568  46.5782926  65.2209615  51.0693125  45.3899946  64.3233789
  51.1032506  44.9426305  63.3299944  52.4626064  45.9737114  64.6500144
  52.6866047  46.7064210  63.8747333  52.3747417  46.4786939  65.6119773
  53.5888943  44.9431569  64.7171106  54.4561018  45.4350598  65.1576596
  53.1691499  44.2373032  65.4338285  54.0140050  44.1960700  63.4579792
  53.7556200  44.6960499  62.3370892  54.6896968  43.1498048  63.6041155
  50.6256607  44.3396441  65.3317096  50.5418024  44.6331646  66.5284454
  50.2987626  43.1261050  64.8303262  50.3291911  43.0464982  63.8239285
  49.7881045  41.9870453  65.6036317  49.5943242  41.1611369  64.9192168
  50.7855074  41.5022142  66.6998831  50.8284746  42.2939954  67.4477706
  50.3450001  40.6087387  67.1423250  52.2030446  41.1841493  66.2110140
  52.5390870  42.0544753  65.6473572  52.8197422  41.0689202  67.1023660
  52.3284265  39.9318377  65.3385719  52.1295218  39.0696818  65.9751433
  51.5634795  39.9956202  64.5646938  53.6978285  39.7769984  64.6873532
  53.6874839  38.8379782  64.1339685  53.8196893  40.6069673  63.9913642
  54.8367020  39.7703058  65.6601597  54.7242005  39.0010533  66.3049029
  55.7071008  39.6648397  65.1587788  54.8467242  40.6405113  66.1727423
  48.3966170  42.3674485  66.1589641  47.5734793  42.8830600  65.3904674
  48.1441607  42.1733966  67.4705950  48.8126195  41.6639815  68.0307365
  46.8614265  42.5372019  68.0793057  46.1214129  42.7132922  67.2986192
  46.3497194  41.4021165  68.9989263  46.3983597  40.4912007  68.4022975
  47.0333600  41.3193618  69.8438448  44.9252884  41.5973056  69.5142528
  43.9749501  41.5459012  68.6878335  44.7622687  41.8278872  70.7394347
  46.9367169  43.9177591  68.7865277  46.2103902  44.1775767  69.7456598
  47.7943792  44.8171422  68.2689822  48.3232496  44.5505105  67.4508728
  47.9933898  46.1563891  68.8157899  47.2919160  46.3285202  69.6321259
  49.4191038  46.3135414  69.3540871  50.0457822  46.0490603  68.5023692
  49.5956721  47.3544447  69.6250923  49.7593968  45.4273564  70.5208766
  49.5349783  45.8475183  71.8254908  49.0803743  46.8243671  71.9904187
  49.8785610  45.0478277  72.9110837  49.6886560  45.3923697  73.9276115
  50.4666697  43.8128220  72.6972656  50.7991271  43.0022647  73.7644155
  50.5790964  43.3915084  74.6139303  50.7199638  43.3857507  71.4031612
  51.1838382  42.4153172  71.2265827  50.3799754  44.2004747  70.3274718
  50.6003891  43.8792502  69.3094675  47.8007035  47.2539480  67.8063988
  48.0197145  47.0568518  66.6145741  47.4424031  48.4342843  68.3195937
  47.2009722  48.3931778  69.2994512  47.3904874  49.7207966  67.6520452
  47.3297961  49.5642736  66.5750511  46.1731214  50.5402232  68.0975314
  46.1430111  50.5376567  69.1871121  46.2832255  51.5640254  67.7400316
  44.8728425  49.9869607  67.5791285  44.7495748  49.6176933  66.3977621
  43.8679817  49.9286444  68.4507931  42.9712950  49.5663486  68.1595983
  44.0070623  50.2469720  69.3991732  48.6943894  50.3673281  68.1209530
  49.0696133  50.2270261  69.2954471  49.4219212  51.0031472  67.1870866
  49.0225450  51.0798935  66.2625824  50.7607929  51.5478611  67.4115311
  51.0696874  51.5587603  68.4567893  51.8095928  50.7265377  66.5883375
  51.6129046  50.8778037  65.5269556  53.2267753  51.1641534  66.9070498
  53.4243713  51.0127437  67.9682434  53.9304691  50.5747337  66.3192573
  53.3451689  52.2198562  66.6629678  51.6579956  49.2198198  66.7762477
  50.6642320  48.9108835  66.4520651  52.4108173  48.7015143  66.1823467
  51.7904923  48.9692596  67.8287519  50.8541397  53.0109368  67.0356522
  50.5124349  53.3800971  65.9145744  51.3973640  53.8249737  67.9439976
  51.5660521  53.4785409  68.8776078  51.6739630  55.2270855  67.6677633
  51.4557886  55.4161701  66.6166943  50.8321944  56.2182843  68.5396330
  49.7999701  55.8906201  68.4161492  51.1460291  56.0484164  69.5695615
  50.9374033  57.7329809  68.2096297  51.9924594  57.9998459  68.1484699
  50.2582268  58.0653186  66.9034195  49.2029629  57.7991425  66.9639770
  50.3523075  59.1331114  66.7057630  50.7282105  57.5040564  66.0958301
  50.3048542  58.5845442  69.2887194  50.8100464  58.4039988  70.2375522
  50.3980424  59.6374581  69.0226562  49.2501770  58.3264607  69.3843646
  53.1767291  55.4198703  67.8579366  53.6914161  55.2631448  68.9711012
  53.8847548  55.6931375  66.7438797  53.4006017  55.6350938  65.8593877
  55.3244549  55.9516529  66.7307425  55.7765733  55.6698318  67.6816710
  56.0858894  55.2277301  65.5846940  55.7746209  55.6540262  64.6310259
  57.5971018  55.3939540  65.7479009  57.9092088  54.9674501  66.7012029
  58.1096274  54.8794427  64.9350687  57.8512793  56.4536338  65.7239413
  55.7061141  53.7430027  65.5222421  54.6350709  53.6486170  65.3431890
  56.2532750  53.2612533  64.7119137  55.9597211  53.2625098  66.4671817
  55.5128746  57.4679136  66.7002713  54.9421878  58.1581268  65.8492534
  56.2858315  57.9841335  67.6566267  56.6973426  57.3587152  68.3345720
  56.5205011  59.4103856  67.8037601  56.4492048  59.9065099  66.8358362
  55.4597808  60.0135832  68.7458026  55.7499291  61.0477120  68.9315197
  54.5103629  59.9936412  68.2107249  55.3066257  59.2694511  70.0973839
  54.9625285  58.2561544  69.8901937  56.2851135  59.2295882  70.5760014
  54.1268303  60.0844532  71.2158151  55.1433286  61.4317880  71.8637087
  55.4733218  62.0665067  71.0413124  54.5574195  62.0240495  72.5665867
  56.0129897  61.0183021  72.3744144  57.9134920  59.7300626  68.3264386
  58.6795982  58.8216801  68.6584879  58.1958580  61.0414945  68.4664734
  57.4570007  61.6775564  68.2026280  59.4353078  61.6037099  69.0117403
  60.2625025  61.3914274  68.3344041  59.3157849  63.1488331  69.1833143
  58.3124972  63.2071610  69.6053461  60.0401553  63.4953935  69.9203919
  59.3955456  64.0254692  67.9438978  60.0109674  63.5821937  66.9340381
  58.9533385  65.2237265  68.0242307  59.6994140  61.0481577  70.3947485
  58.7879845  61.0220878  71.2177841  60.9435284  60.6386057  70.6609394
  61.6299950  60.6208064  69.9203005  61.3627031  60.2466960  72.0017941
  60.5710430  59.6621524  72.4704969  62.6299158  59.4075616  71.9658734
  62.4271772  58.5691488  71.2994950  63.4041970  60.0386986  71.5296912
  63.0969819  58.8891593  73.2929425  63.1051513  59.7094637  74.0106714
  62.1813446  57.7993684  73.7867442  62.1730119  56.9784574  73.0697125
  62.5359999  57.4352875  74.7509877  61.1716349  58.1947989  73.8972946
  64.4538800  58.3404096  73.1687876  65.1332397  59.1228233  72.8305589
  64.7850514  57.9661639  74.1374810  64.4516592  57.5244665  72.4460630
  61.6508164  61.5699819  72.7401194  62.4469203  62.3953153  72.2661423
  60.9523464  61.7980013  73.8526232  60.2548260  61.1292648  74.1464875
  61.1287989  63.0096424  74.6488821  61.7647542  63.7154421  74.1145536
  59.7583762  63.6817381  74.9156443  59.2385243  62.9253907  75.5036850
  59.9258563  64.5667448  75.5294958  58.9061930  64.0577067  73.7005055
  58.8289537  63.1914591  73.0434287  57.5476878  64.4823033  74.1204381
  57.6240909  65.3488523  74.7772137  56.9602323  64.7446067  73.2405552
  57.0594753  63.6657676  74.6524328  59.5658437  65.1427299  72.8473111
  60.5307191  64.7858701  72.4870807  58.9251175  65.3767446  71.9971298
  59.7123657  66.0397546  73.4489562  61.8191865  62.6350511  75.9524589
  61.8794883  61.4516160  76.3046888  62.3209183  63.6393181  76.6549501
  62.2202032  64.5652524  76.2643077  62.9983290  63.5007142  77.9342881
  63.7086976  62.6783677  77.8493072  63.5378604  64.4275297  78.1292709
  62.0649556  63.2254376  79.0846133  60.9603859  62.7044168  78.8839641
  62.5193579  63.5137712  80.3279283  63.8894257  63.5262066  80.7397640
  64.2030782  64.5622909  80.8672459  64.4897763  63.0588062  79.9592417
  63.9199141  62.7466931  82.0350849  64.7665876  63.0508852  82.6504793
  63.9786975  61.6757297  81.8409629  62.5859893  63.1103216  82.6986908
  62.5933368  64.0618413  83.2303442  62.2405921  62.3230013  83.3687110
  61.6696306  63.2011950  81.4895714  61.2466439  62.2092196  81.3309360
  60.5446128  64.2040504  81.6980204  60.6189912  65.3427824  81.2207789
  59.5029473  63.7734503  82.4237734  59.4650752  62.8153722  82.7411870
  58.3985035  64.6491479  82.7520456  58.1372506  65.2577900  81.8863662
  57.1824694  63.8333661  83.1567307  56.2978767  64.4660208  83.0836348
  57.0837479  62.9911166  82.4719169  57.3089934  63.3527945  84.4779728
  56.5296621  62.8418756  84.7086338  58.8096768  65.5896672  83.9057779
  59.8350105  65.3582950  84.5625120  57.9653879  66.6048799  84.1735192
  57.1884148  66.7469876  83.5440610  58.1643052  67.5626241  85.2515169
  59.1798461  67.9547146  85.1963718  57.1809025  68.7356830  85.1656498
  56.2223211  68.2250949  85.0733418  57.2034392  69.2992841  86.0983587
  57.3630034  69.6900968  83.9911497  57.2333394  69.1365315  83.0611746
  56.3405266  70.8192721  84.0568624  56.4698805  71.3736162  84.9864155
  56.4853381  71.4909528  83.2107090  55.3343733  70.4016188  84.0205070
  58.7942133  70.2303676  83.9155877  59.4903948  69.4005824  83.7935737
  58.8833816  70.9067702  83.0655113  59.0288317  70.7687796  84.8338282
  58.0878837  66.8921876  86.6017149  58.7994129  67.3109392  87.4991080
  57.2991456  65.7973258  86.7237386  56.7118306  65.5543588  85.9388007
  57.1956671  65.0011347  87.9331541  57.0815765  65.6561429  88.7968941
  55.9900859  64.0750665  87.8624902  55.1230757  64.6986983  87.6446003
  56.1632643  63.3913377  87.0314522  55.7311536  63.2687019  89.1425571
  54.9371325  62.5591499  88.9098185  56.6726882  62.7328977  89.2630795
  55.3945680  64.0009260  90.4360455  54.9966130  65.1869127  90.3893934
  55.4728215  63.3521659  91.5030266  58.5024870  64.2144422  88.1502020
  58.9517987  64.0886613  89.2893956  59.1279756  63.7194392  87.0668784
  58.6901213  63.8375847  86.1644237  60.4055759  62.9968740  87.1319563
  60.3264533  62.1954191  87.8664689  60.7842916  62.3811972  85.7696508
  60.7851122  63.2349029  85.0919450  61.7933538  61.9757062  85.8436146
  59.8486445  61.3135148  85.2360884  59.1421803  60.6698500  86.0581980
  59.8612422  61.0751293  84.0004033  61.4995803  63.9557164  87.5703041
  62.3102508  63.6113760  88.4300849  61.4925384  65.1719807  87.0035057
  60.8398144  65.3446003  86.2523378  62.4734935  66.2029278  87.3168824
  63.4630803  65.7505720  87.3816237  62.5037027  67.2939920  86.2438248
  61.4718356  67.6404965  86.1865168  63.1432440  68.1120268  86.5753456
  62.9571754  66.8206002  84.8686220  62.5430503  65.8284321  84.6891682
  62.5001582  67.7504903  83.7974061  62.9142849  68.7428234  83.9759361
  62.8399088  67.3844867  82.8285348  61.4115489  67.8052367  83.8031623
  64.4400473  66.6565914  84.8096216  64.7543837  65.9202013  85.5492308
  64.7293636  66.3179374  83.8147795  64.9204819  67.6117328  85.0217215
  62.2693616  66.7636348  88.7156271  63.2574262  67.0686533  89.3874255
  60.9904469  66.8425067  89.1680068  60.2510973  66.6518640  88.5068586
  60.6187514  67.2974199  90.5202743  61.1049917  68.2511044  90.7255921
  59.0912938  67.4828204  90.6560830  58.6562928  67.9996405  89.8006473
  58.7181784  66.4592213  90.6896994  58.5631145  68.1791704  91.8993824
  58.8524071  69.5181149  92.1442794  59.5114949  70.0554268  91.4623710
  58.3078102  70.1735211  93.2501048  58.5795580  71.2080340  93.4599544
  57.4235097  69.5096302  94.0790068  56.9859561  70.0268714  94.9328852
  57.0955958  68.1988398  93.8278056  56.3811890  67.6842187  94.4703693
  57.6734009  67.5299692  92.7566200  57.4340904  66.4821480  92.5752334
  61.2040954  66.3147200  91.5402617  61.8967247  66.7551756  92.4558957
  61.0344362  64.9896415  91.2966318  60.4143206  64.7590364  90.5334953
  61.6015627  63.8860845  92.0950167  61.2880926  63.9878162  93.1340000
  61.1232136  62.5314594  91.5706475  61.2506953  62.5757057  90.4890330
  61.7331447  61.7236928  91.9751189  59.6662662  62.2381652  91.8754848
  59.1008664  62.6604492  92.9080415  59.0413927  61.4455680  91.0110799
  58.0697817  61.2112858  91.1566259  59.5409430  61.0810833  90.2125179
  63.1401201  63.9446184  92.1389377  63.7157952  63.9107687  93.2197450
  63.7826901  64.1031984  90.9774636  63.1948776  64.0760628  90.1565863
  65.2259786  64.2666766  90.7926521  65.7555719  63.3709587  91.1171820
  65.5222832  64.4998191  89.2933826  65.1652637  63.6520689  88.7086127
  65.0106926  65.4058299  88.9685449  66.9767402  64.6791630  88.9482572
  67.8280629  63.5839736  88.8639913  67.4269426  62.5817100  89.0145570
  69.1874759  63.7587455  88.5889782  69.8511396  62.8946562  88.5573415
  69.6898718  65.0240752  88.3575477  70.7500812  65.1609173  88.1446390
  68.8503588  66.1122827  88.3960230  69.2421339  67.1090852  88.1935452
  67.4964018  65.9412491  88.6942796  66.8328195  66.8052437  88.7299428
  65.7580529  65.4371826  91.6363875  66.8350671  65.3316122  92.2220370
  64.9773662  66.5356650  91.7198060  64.1658860  66.5325865  91.1184826
  65.2662631  67.7499321  92.4927763  66.3436161  67.8637845  92.6129733
  64.7258678  68.9749767  91.7784580  63.6544589  68.8797070  91.6020894
  64.9193867  69.8780667  92.3573180  65.4755447  69.2466210  90.1637360
  64.7834233  70.3442354  89.8720017  64.7796314  67.6874672  93.9390576
  64.6608995  68.7316175  94.5958642  64.5238668  66.4666299  94.4378350
  64.5616468  65.7034788  93.7773259  64.0590517  66.1860396  95.7953338
  63.7589841  65.1404103  95.8640203  65.1555381  66.4493367  96.8306939
  65.3088680  67.5257258  96.9079969  64.8247091  66.0599144  97.7935036
  66.3732883  65.8241443  96.4616075  67.0408031  66.0057620  97.1272192
  62.7472079  66.9114561  96.1462947  62.6463014  67.4588666  97.2507850
  61.7317906  66.8789060  95.2126876  61.9783557  66.5001501  94.3094440
  60.3787653  67.4331364  95.3918422  59.8149957  67.4222185  94.4590272
  59.6549421  66.5308117  96.4170051  59.7434661  65.5327706  95.9878470
  60.2808897  66.6000203  97.3066678  58.1918433  66.7951248  96.7993291
  58.1577963  67.4665901  97.6572778  57.6755024  67.2559543  95.9572303
  57.5019124  65.4680858  97.1594785  58.0745211  64.9382836  97.9207458
  56.4931107  65.6539041  97.5281113  57.4172527  64.6267429  95.9670172
  58.1665142  63.9706854  95.7988053  56.4201040  64.6907653  95.0881916
  55.3628510  65.4669948  95.3230340  55.3179334  66.0101927  96.1733390
  54.6112273  65.5086114  94.6496622  56.4613201  63.9693012  93.9784669
  57.2532019  63.3684710  93.7995078  55.7006846  64.0232135  93.3161785
  60.4475369  68.9427181  95.8021733  59.7027860  69.4284992  96.6476304
  61.3680264  69.6679007  95.1893077  61.9872595  69.1931353  94.5480217
  61.6119841  71.0719928  95.4699052  60.6786157  71.5795571  95.7134234
  62.5784854  71.1906880  96.6919742  61.9271913  71.1980518  97.5659655
  63.1603922  70.2690799  96.6808886  63.5382802  72.4067949  96.7528610
  64.2437606  72.2058168  97.5590905  64.0708888  72.4302198  95.8021343
  62.8592639  73.7653404  96.9931881  62.0679756  73.8932161  96.2545342
  62.4254419  73.7643230  97.9931365  63.7916929  74.8970394  96.8853757
  64.7768989  74.6770924  96.8523339  63.4243963  76.1769302  96.8443892
  62.1376735  76.5091973  96.8789018  61.4341086  75.7868590  96.9365539
  61.8695620  77.4824485  96.8473101  64.3395264  77.1323735  96.7527224
  65.3186371  76.8875579  96.7138940  64.0531528  78.1004412  96.7221627
  62.1244394  71.7862808  94.2000347  63.1150656  71.3456557  93.6016024
  61.3883056  72.8452961  93.7666820  60.5118099  73.0026080  94.2432402
  61.7478027  73.7399357  92.6508474  62.7305293  73.4369384  92.2895440
  60.7602661  73.7274023  91.4638809  59.7699025  73.8113565  91.9113526
  60.9508569  74.5994340  90.8383124  60.7170679  72.5351704  90.5407222
  61.7946700  71.6564229  90.4543182  62.6704348  71.8173966  91.0829861
  61.7585815  70.5745749  89.5697321  62.6046992  69.8897613  89.5130248
  60.6507219  70.3727816  88.7670455  60.6280277  69.5318624  88.0739079
  59.5783015  71.2313515  88.8423135  58.7009601  71.0636720  88.2176089
  59.6137439  72.3147263  89.7167383  58.7713377  73.0048184  89.7639044
  61.8594286  75.1817439  93.1542606  61.0143962  75.6333075  93.9558794
  62.8839150  75.9160462  92.6369274  63.5513944  75.4480901  92.0406158
  63.1214497  77.3136872  92.9766023  62.8843226  77.5559126  94.0125544
  64.5683659  77.7641413  92.6835196  64.6386043  78.8291271  92.9048156
  65.5745250  77.0226566  93.4910735  65.5052002  75.9575738  93.2699573
  66.5742098  77.3801401  93.2442234  65.3822246  77.1863434  94.5514167
  64.8805665  77.7025520  91.2813557  65.7859948  77.9896794  91.1422236
  62.1130769  78.1505018  92.2511233  61.5537975  77.7006143  91.2460752
  61.8746996  79.3736354  92.7499363  62.2661332  79.6355689  93.6433958
  60.9507883  80.2900780  92.1085029  59.9727004  79.8199441  92.0064372
  60.7977501  81.5566804  92.9426318  60.5785166  81.2441476  93.9635917
  61.7568669  82.0740437  92.9196101  59.7023221  82.4961792  92.4530518
  59.5954616  83.2754755  93.2076239  60.0592562  82.9383157  91.5228822
  58.0989554  81.7260212  92.1657875  57.6933514  81.2043958  93.8993928
  57.6576665  82.0822261  94.5445591  56.7244089  80.7053021  93.9119045
  58.4593424  80.5187570  94.2616890  61.3704374  80.5642841  90.6467291
  60.4944017  80.6379031  89.7756191  62.7058322  80.5767685  90.3587971
  63.3464124  80.5497145  91.1391973  63.2601881  80.7489986  89.0071732
  62.8330362  81.6446695  88.5561588  64.7984026  80.8953153  89.0343890
  65.0474024  81.7109270  89.7132674  65.2187686  79.9647255  89.4156961
  65.3786581  81.1871535  87.6559859  64.9288798  80.4838346  86.9551701
  65.0892285  82.2029215  87.3866387  66.8541964  81.0633397  87.6009328
  67.3081369  81.8437596  88.2116552  67.1520354  80.0860655  87.9808363
  67.3207449  81.2108370  86.1622105  67.1778363  80.2555598  85.6571133
  66.7066309  81.9715341  85.6802322  68.7547374  81.6057115  86.0804684
  69.3239984  80.9007522  86.5266455  69.0251509  81.6930259  85.1112663
  68.8872966  82.4910772  86.5480738  62.8191739  79.6202365  88.0461199
  62.4225099  79.9138901  86.9194544  62.8870768  78.3456385  88.4865177
  63.3852203  78.1727588  89.3479496  62.4428474  77.1923367  87.6966644
  62.8563480  77.3090522  86.6949190  62.9487935  75.8612202  88.2863231
  62.7268003  75.8645317  89.3534728  62.3003660  74.6353601  87.6337706
  62.5223262  74.6311131  86.5666177  62.6961031  73.7281147  88.0902758
  61.2208585  74.6737984  87.7796700  64.3474011  75.7837085  88.0216900
  64.6953700  74.9627820  88.3774958  60.9247871  77.2571929  87.4735487
  60.4785550  77.2401564  86.3381881  60.1538291  77.4116217  88.5263624
  60.5762587  77.3394927  89.4409388  58.6893827  77.5127954  88.4409078
  58.2413953  76.6618709  87.9277471  58.0297065  77.6474825  89.8589278
  58.5037055  78.4825612  90.3747453  56.5168656  77.8905145  89.7755267
  56.0420831  77.0555725  89.2602069  56.1062053  77.9767945  90.7815160
  56.3261671  78.8120553  89.2255283  58.3314858  76.4279290  90.7068473
  59.4100031  76.3268702  90.8280478  57.8653974  76.5409348  91.6856685
  57.9363893  75.5377027  90.2174632  58.2673903  78.6212621  87.4570857
  57.3863151  78.3858164  86.6052014  58.9134487  79.8021418  87.5438475
  59.5461348  79.9867382  88.3091786  58.5779243  80.9086797  86.6336566
  57.4947306  80.9668075  86.5268303  59.0892105  82.2489361  87.1547565
  60.1206939  81.9584447  87.3541457  59.0754831  83.0680703  86.4357776
  58.4167111  82.7095871  88.4767240  58.3978761  81.8619411  89.1617367
  59.1658264  83.8760281  89.1287077  59.1846765  84.7242626  88.4444258
  58.6594286  84.1642018  90.0499123  60.1871411  83.5707419  89.3563412
  56.9213063  82.9184418  88.3096277  56.4558405  81.9832420  87.9984329
  56.4906532  83.2401242  89.2578680  56.7429272  83.6820280  87.5525173
  58.9947448  80.6701386  85.1774860  58.2032458  81.0037127  84.2914462
  60.1912399  80.0699030  84.9155555  60.8126262  79.8621071  85.6841902
  60.6302943  79.7250719  83.5461207  60.5687769  80.6147818  82.9194381
  62.0767622  79.2014515  83.5159007  62.1836464  78.5057513  84.3481724
  62.2041872  78.6647845  82.5757669  63.1287010  80.2834308  83.6251743
  62.8356863  81.0787252  82.9397912  63.0933820  80.6555570  84.6490770
  64.8153967  79.7596630  83.2412149  65.0990408  78.5411373  84.5179479
  64.3650948  77.7404991  84.4262924  66.1019615  78.1280284  84.4102834
  65.0032710  79.0108016  85.4968988  59.7212219  78.6524600  82.9416325
  59.4699896  78.6540504  81.7417571  59.2491759  77.7304318  83.7728470
  59.5864086  77.7359379  84.7248675  58.3623188  76.6582351  83.3637361
  58.7267576  76.2355458  82.4274576  58.2836418  75.5240801  84.4232640
  58.2069215  76.0844111  85.3550593  57.3681596  74.9536226  84.2665141
  59.4789523  74.5621464  84.5014984  60.3826554  75.1500198  84.6622042
  59.3197913  73.5534597  85.6366639  58.4164849  72.9648586  85.4763980
  60.1852137  72.8911527  85.6588985  59.2438924  74.0832717  86.5862107
  59.7074557  73.8583924  83.1918017  59.9080553  74.5945129  82.4133508
  60.5605064  73.1861476  83.2839574  58.8196167  73.2838444  82.9277270
  57.0030636  77.2021930  83.0367862  56.4403022  76.8335232  81.9957443
  56.4772404  78.0931412  83.9098168  57.0186730  78.2694611  84.7439998
  55.1583745  78.7223433  83.7913115  54.4331004  77.9128937  83.8741851
  54.9215333  79.7066126  84.9296410  55.6344519  80.5277460  84.8548943
  53.9070167  80.0999639  84.8653684  55.0534274  79.1973909  85.8843119
  54.9362758  79.3856465  82.4402264  53.8566478  79.2554960  81.8689232
  55.9733552  80.0227748  81.9069988  56.8177831  80.0381072  82.4608994
  55.9680275  80.7351360  80.6354163  55.1863400  81.4947064  80.6246190
  57.3285269  81.4273011  80.4471329  57.6565997  81.9296989  81.3571130
  57.9938835  80.5904863  80.2346676  57.3624776  82.4078967  79.2873649
  56.6416623  83.4478430  79.3558187  58.1870255  82.2010793  78.3641990
  55.6685197  79.8033478  79.4809147  54.7749603  80.0772253  78.6860834
  56.4118417  78.6722205  79.4177986  57.1872609  78.6137052  80.0623142
  56.2509914  77.6071358  78.4276356  56.1554863  78.0403409  77.4319894
  57.4554819  76.6811399  78.4407147  57.6476028  76.4014595  79.4765563
  57.1961414  75.7914831  77.8668215  58.7021350  77.3200825  77.8489671
  58.4192374  77.8471129  76.9377543  59.1396858  78.0256692  78.5552240
  59.7366916  76.2814303  77.5028179  59.5275501  75.4348114  76.6192132
  60.8662457  76.3140227  78.2161098  61.5971646  75.6423755  78.0296993
  60.9838909  77.0101554  78.9383702  54.9448934  76.8171297  78.5775833
  54.3587406  76.4955184  77.5727540  54.4845088  76.5383462  79.7992620
  55.0986872  76.7655128  80.5682090  53.2341092  75.8328233  80.0937791
  53.1759886  74.9216512  79.4983912  53.1660738  75.4529832  81.5800115
  53.3722571  76.3577412  82.1518512  52.1470267  75.1217848  81.7798878
  54.1523852  74.3509243  81.9930552  53.9226691  73.4849709  81.3722040
  55.1473503  74.7210095  81.7457025  54.1157642  73.8576804  83.7454505
  54.9718976  75.0129728  84.3427001  54.4903425  75.9682401  84.1337306
  55.0611612  74.8798320  85.4208495  55.9643773  75.0007549  83.8922159
  51.9652056  76.5995321  79.6589422  51.0067756  75.9715067  79.2132640
  51.9537143  77.9416904  79.7698250  52.7332166  78.3738153  80.2449499
  50.8392521  78.8032904  79.3262391  49.8769717  78.3823866  79.6177106
  50.9501975  80.2800968  79.8629038  51.9547644  80.6476521  79.6535028
  49.9196329  81.2027355  79.1988719  48.9147364  80.8360585  79.4082320
  50.0271044  82.2126666  79.5945862  50.0839080  81.2158501  78.1214023
  50.8201863  80.3256774  81.4047986  49.7555665  80.2137989  81.6101484
  51.3539352  79.4472694  81.7675810  51.3330254  81.5370284  82.0960719
  50.7993920  82.4158498  81.7341216  51.1786307  81.4357126  83.1703142
  52.3977610  81.6493215  81.8915521  50.8097422  78.7319702  77.7977057
  49.7444482  78.4640368  77.2285050  51.9813150  78.9201871  77.1497954
  52.7781884  79.2163479  77.6951217  52.1226859  78.8533213  75.6932405
  51.4140500  79.5416585  75.2326690  53.5255913  79.2294433  75.2461357
  54.2582976  78.5980952  75.7487690  53.6184579  79.1047039  74.1672863
  53.7587461  80.5880282  75.5870108  54.6426887  80.8402284  75.3101708
  51.6993312  77.5160426  75.1083426  50.9819503  77.5122606  74.1013549
  52.1127450  76.3829969  75.7418160  52.7641680  76.4883238  76.5064425
  51.7504477  75.0268082  75.3192678  52.0301729  74.8921808  74.2744097
  52.4626637  73.9537130  76.1611284  52.2262790  74.2010271  77.1960473
  51.9788603  73.0145060  75.8929410  54.0021720  73.8069936  76.0024164
  54.4280629  74.7188552  76.4210167  54.2812117  72.9570732  76.6252119
  54.5313909  73.6007882  74.6038912  55.4247306  72.9764454  74.6193606
  53.7749066  73.1361195  73.9715037  54.8765398  74.8910355  74.0429391
  54.1619475  75.3493703  73.4957770  56.0480436  75.4948405  74.1864254
  57.0465621  74.8808938  74.8137527  56.9111552  73.9503527  75.1823423
  57.9359493  75.3478440  74.9188598  56.2314238  76.7157634  73.7187366
  55.4748248  77.1922519  73.2490382  57.1274626  77.1676494  73.8328083
  50.2192946  74.8193252  75.3420503  49.6690773  74.3731442  74.3373766
  49.5270385  75.1834608  76.4523709  50.0790334  75.4430718  77.2573573
  48.0418893  75.1126749  76.6045658  47.6632875  74.1410369  76.2872653
  47.5868838  75.3945337  78.0753814  47.9408063  76.3855573  78.3594794
  46.0617992  75.3357080  78.2210874  45.7071596  74.3447689  77.9375897
  45.7871954  75.5368253  79.2565802  45.6052385  76.0836468  77.5728288
  48.2474945  74.4182531  79.0690110  47.7683215  73.4529551  78.9056284
  49.2960854  74.3566965  78.7778626  48.1499666  74.7941113  80.5614334
  47.1016022  74.8554064  80.8534519  48.6498992  74.0338242  81.1615419
  48.6293644  75.7591495  80.7256857  47.3723901  76.0643626  75.5780853
  46.4469594  75.6692058  74.8595312  47.9007961  77.3012401  75.4688594
  48.6447346  77.5576238  76.1020436  47.4190856  78.2992523  74.5346311
  46.4058048  78.6023093  74.7982932  48.3142665  79.5163428  74.5792060
  48.3941381  79.8685010  75.6076535  49.3043079  79.2502921  74.2088886
  47.7353875  80.6038646  73.7218825  47.6646813  80.1464626  72.7350265
  46.7340107  80.8202143  74.0940872  48.5191243  81.8787736  73.6265423
  49.5310290  82.0197000  74.3521777  48.0802826  82.7592382  72.8504463
  47.3249357  77.7799925  73.0970140  46.3044457  78.0049165  72.4189267
  48.3834174  77.0755440  72.6346216  49.2170902  77.0005274  73.1998309
  48.4157958  76.5382402  71.2831845  48.1823688  77.3298254  70.5711424
  49.7868343  75.9758904  70.9513879  50.4168762  76.8645407  70.9133462
  50.1745142  75.2881833  71.7029617  49.7894400  75.3005332  69.6039314
  49.7893020  76.0475471  68.4299309  49.8527227  77.1336050  68.4974244
  49.7098714  75.4299528  67.1821865  49.7324205  76.0267658  66.2703709
  49.5916169  74.0465627  67.1049486  49.5200697  73.3930896  65.9040611
  49.5602425  73.9869725  65.1508753  49.5530096  73.2912730  68.2623565
  49.4445367  72.2080035  68.2088658  49.6533736  73.9202555  69.4996556
  49.6260861  73.3293943  70.4152093  47.2973822  75.5262603  71.0429063
  46.5952561  75.6183646  70.0315439  47.1324992  74.5660434  71.9756072
  47.8437599  74.5008948  72.6897243  46.0800509  73.5563472  71.9536943
  46.1288546  72.9633974  71.0403882  46.1826524  72.5934242  73.1803590
  46.1488625  73.1892359  74.0924806  45.0436022  71.5860638  73.1908752
  45.0770139  70.9895267  72.2792129  45.1446750  70.9315748  74.0566285
  44.0914737  72.1139798  73.2443314  47.5098319  71.8522632  73.1803439
  48.3278741  72.5708598  73.2306215  47.5560948  71.1888363  74.0439550
  47.5985434  71.2648854  72.2664410  44.7124722  74.2649965  71.8431386
  43.8961934  73.8842630  71.0107697  44.5150049  75.3488267  72.6239905
  45.2153979  75.5334915  73.3278711  43.3180509  76.1907404  72.5984866
  42.4279356  75.5678789  72.6870164  43.3351234  77.1884584  73.7612696
  44.2837124  77.7253696  73.7634247  42.5171291  77.8976003  73.6343715
  43.1755761  76.5855695  75.1406810  43.2482747  77.3681562  76.2855119
  43.0584592  76.5475442  77.3050392  43.0620869  76.9789753  78.3060152
  42.8919297  75.2971946  76.8975594  42.7437362  74.4761146  77.4667396
  42.9569081  75.3035790  75.5178848  42.8367205  74.3735292  74.9623098
  43.1101725  76.9124589  71.2330336  41.9728307  77.0292033  70.7683376
  44.1921067  77.3408045  70.5591973  45.1135862  77.3167714  70.9719892
  44.0318935  77.9882904  69.2450037  43.1939479  78.6834595  69.1931749
  45.3028248  78.7172182  68.7880531  45.1046618  79.1422661  67.8040989
  45.7326843  79.8263230  69.7436143  45.9314852  79.4019415  70.7277272
  46.6367419  80.3029587  69.3646720  44.9373485  80.5675300  69.8220606
  46.3521463  77.7705948  68.5410033  47.1421055  78.2356978  68.2559699
  43.5498959  77.0067998  68.2025965  42.9218400  77.4125834  67.2183062
  43.8540226  75.7081675  68.4196634  44.4864636  75.5078477  69.1812339
  43.4467436  74.6074900  67.5499456  43.2757661  74.9877241  66.5428270
  44.5339368  73.5045469  67.4850437  44.7269770  73.1850450  68.5091303
  44.1131434  72.6735501  66.9189366  45.8409970  73.9507621  66.8369746
  46.1798243  74.8715666  67.3117545  46.5925954  73.1735058  66.9750854
  45.6357034  74.1897999  65.3796378  45.5925165  73.2154208  64.8929971
  44.6769945  74.6955423  65.2647405  46.7099697  75.0122335  64.7507438
  46.8276731  75.9408267  65.3092787  47.6475588  74.4566272  64.7688383
  46.3459053  75.3236105  63.3433059  45.4773609  75.8388217  63.3263426
  47.0758343  75.8802298  62.9220240  46.2372099  74.4632992  62.8254750
  42.0587174  74.0472558  67.9424581  41.6990702  72.9627754  67.4903021
  41.2718893  74.7976425  68.7680556  41.7334837  75.5954177  69.1810747
  39.8923692  74.4920313  69.1904145  39.4821265  75.3323257  69.7505086
  39.0009054  74.2366173  67.9649766  39.1705983  73.2586147  67.5146272
  37.9839131  74.2853163  68.3541489  39.1607289  75.2952531  66.8962237
  39.0754404  76.4999671  67.1518547  39.5038137  74.8703485  65.6936723
  39.6243213  75.5342984  64.9421750  39.6440826  73.8834326  65.5311229
  39.7428443  73.3524335  70.1917277  38.6339635  72.8811419  70.3937563
  40.8189629  72.9600790  70.8710368  41.7125099  73.3912844  70.6819996
  40.7643295  71.8928073  71.8510064  39.7464079  71.5105046  71.9270299
  41.6940242  70.7377371  71.4347869  42.6443683  71.1403532  71.0842938
  41.8708351  70.0768646  72.2833655  41.1523391  69.8729650  70.3183513
  41.1975170  70.3050264  68.9966165  41.6500801  71.2692864  68.7653390
  40.6713279  69.5182206  67.9725937  40.6621918  69.8910758  66.9483886
  40.1617120  68.2663426  68.2563015  39.8066857  67.6292785  67.4462364
  40.1014359  67.8225229  69.5577438  39.6725735  66.8464603  69.7846333
  40.5921284  68.6273081  70.5898745  40.5389461  68.2820997  71.6223970
  41.1410989  72.3537014  73.2330477  41.9616935  73.2515808  73.3819208
  40.5732269  71.6955551  74.2521153  39.7847903  71.1178527  73.9977002
  40.9242184  71.8084282  75.6756158  41.7054468  72.5517735  75.8344210
  39.7086238  72.1233364  76.6070189  39.9917619  71.9351382  77.6426417
  39.2899851  73.6021415  76.4485161  39.0062448  73.7910014  75.4131785
  38.4425821  73.8123455  77.1010675  40.1253712  74.2478140  76.7193229
  38.5302040  71.1368036  76.3492847  38.1712487  71.3997922  75.3542526
  39.0027464  70.1550973  76.3167916  37.4149615  71.1047796  77.2712839
  36.9415952  72.0860828  77.3039659  36.6891228  70.3627162  76.9387190
  37.7730937  70.8413900  78.2665060  41.6296885  70.4600974  75.9866479
  41.2219840  69.4543541  75.4267564  42.7019092  70.4430269  76.7951264
  43.0312195  71.3350898  77.1355347  43.4958175  69.2400523  77.1056464
  43.5935401  68.6132703  76.2192527  44.9105928  69.6587449  77.5738147
  45.3560341  70.3068546  76.8190731  44.8692011  70.1865541  78.5266023
  45.8463689  68.5164411  77.7601350  45.8585651  67.7817556  78.9368943
  46.7902341  66.8539405  78.7658915  46.9688976  66.1643653  79.5909153
  47.3578483  66.9442369  77.5626086  48.0901239  66.3635953  77.1795580
  46.7606441  67.9946303  76.9074402  47.0658610  68.2480822  75.8922033
  42.7972800  68.2952808  78.1099313  42.7322705  67.0874015  77.8910356
  42.3071135  68.8516031  79.2103976  42.5898722  69.8131674  79.3350607
  41.5485191  68.2025656  80.2898058  41.2482506  68.9580367  81.0158922
  40.2969616  67.4999875  79.7711605  40.6084456  66.7662144  79.0277534
  39.8274681  66.9883987  80.6113705  39.3135096  68.4528669  79.1524707
  39.3197626  69.3903196  79.7085680  39.5969142  68.6431834  78.1173072
  37.9481418  67.8620900  79.1920473  37.6364201  67.7203682  80.2268629
  37.2439481  68.5243660  78.6884590  37.9359651  66.5697520  78.5197539
  38.8185261  66.2193796  78.1756252  36.8490977  65.8405782  78.3273461
  35.6666296  66.2707750  78.7578886  35.5985940  67.1588299  79.2341549
  34.8420763  65.7074550  78.6066205  36.9319350  64.6716517  77.7126284
  37.8284602  64.3366227  77.3899858  36.0982528  64.1199058  77.5689298
  42.3585031  67.2564255  81.1729676  41.7782388  66.5615759  82.0006186
  43.6744563  67.2616496  81.0535655  44.1166101  67.7765936  80.3056135
  44.5016562  66.4360961  81.8967711  44.0588317  66.3665986  82.8903383
  44.6295997  65.0082658  81.3110408  43.6634376  64.7309115  80.8894905
  45.3548019  65.1306324  80.5065482  45.1012730  63.9172124  82.2554474
  44.8133310  64.0155928  83.4861268  45.7049170  62.9387711  81.7645672
  45.8444098  67.1435978  82.1144297  46.9226144  66.5950654  81.8426946
  45.7582572  68.3933461  82.6075625  44.8398394  68.8031750  82.7005590
  46.9270183  69.2250088  82.9228462  47.7786770  69.0693132  82.2606261
  46.5490678  70.7422588  82.9373940  45.7389207  70.8901031  83.6514698
  47.7520265  71.6188444  83.3370663  48.5624656  71.4718799  82.6231402
  47.4541532  72.6673540  83.3370211  48.0914633  71.3381449  84.3341068
  45.9001273  71.2047991  81.5975526  45.0393164  70.5562372  81.4348478
  45.5586024  72.2270642  81.7601393  46.8009787  71.1614844  80.3819373
  47.1425527  70.1393824  80.2184298  46.2481846  71.5036262  79.5070333
  47.6618404  71.8102081  80.5437226  47.5108019  68.7227498  84.2671608
  46.8542685  68.8153999  85.3094189  48.7135799  68.1197758  84.2114803
  49.1286194  67.9883471  83.3001252  49.4099620  67.5695247  85.3781566
  49.2667499  68.2335449  86.2306042  48.8661698  66.1547721  85.7510655
  49.4281361  65.8349645  86.6285712  47.8193194  66.2932778  86.0212884
  48.9740406  65.0871895  84.6595925  48.5372661  65.4713074  83.7377561
  50.0247409  64.8503908  84.4920889  48.2346910  63.8323366  85.0846106
  48.5905519  63.5589483  86.0779489  47.1729964  64.0742490  85.1334198
  48.4434498  62.6748629  84.1398284  48.3284953  63.0385239  83.1187326
  49.4559372  62.2955728  84.2780579  47.4661951  61.5812487  84.3893666
  46.5279525  61.9323896  84.2609115  47.6343783  60.8251095  83.7412402
  47.5728383  61.2438409  85.3353487  50.9101806  67.5474398  85.1075181
  51.2685694  67.5029460  83.9352724  51.8087384  67.5964683  86.1317305
  51.5902802  67.3606792  87.4823631  50.7835232  66.6321044  87.5625012
  51.2755855  68.3015888  87.9337558  52.8918747  66.8515276  88.0591244
  52.9568037  65.7670526  87.9708228  52.9887484  67.1366959  89.1066911
  53.9552895  67.5476426  87.2019261  54.9171486  67.0432519  87.1096437
  54.1109662  68.5607138  87.5728048  53.2628271  67.5912291  85.8493342
  53.4855290  68.5611805  85.4047036  53.7762373  66.4707175  84.9211441
  54.7175184  66.6921871  84.1441717  53.1302023  65.2890318  84.9806982
  52.4299491  65.2055635  85.7037321  53.4391283  64.1030068  84.1697269
  54.5070773  63.8908891  84.2206211  52.6713305  62.8794438  84.6851035
  51.8244218  63.2667301  85.2515432  52.3061954  62.2933784  83.8417152
  53.5184432  61.9997914  85.5818982  54.7183775  61.7471588  85.2250503
  52.9886596  61.5242434  86.6171245  53.2197848  64.2526957  82.6656100
  53.8399890  63.5151500  81.8997751  52.3541753  65.1931316  82.2344817
  51.7965969  65.6809503  82.9209499  52.0665760  65.4237543  80.8120156
  52.3850637  64.5604286  80.2277781  50.5647829  65.6374425  80.5914325
  50.2572626  66.3509004  81.3559639  50.3496318  66.0477004  79.6047722
  49.7676828  64.3641528  80.7698438  50.2359507  63.2591511  80.4923454
  48.5260600  64.4861046  81.1537951  47.9579651  63.6614097  81.2851208
  48.1392705  65.4045884  81.3177530  52.9217096  66.5380252  80.1941613
  52.8098822  66.8198317  78.9998738  53.8062122  67.1361391  80.9839006
  53.7897592  66.9103545  81.9682024  54.7661778  68.1308618  80.5185603
  54.5566691  68.3681966  79.4755466  54.6930799  69.4225064  81.3386736
  54.6960931  69.1240751  82.3870194  55.5511947  70.0651801  81.1419262
  53.4622189  70.2714267  81.1350035  53.3992421  71.1888795  80.0938444
  54.2464246  71.2861294  79.4149304  52.2623122  71.9839817  79.9122323
  52.2112991  72.6687323  79.0657012  51.2034639  71.9035170  80.8034874
  50.3249142  72.5352084  80.6722762  51.2653345  71.0184535  81.8606059
  50.4393826  70.9565588  82.5691768  52.3916461  70.1983729  82.0230002
  52.4368331  69.4924877  82.8523277  56.1514579  67.4717862  80.6180203
  56.5426507  67.0317153  81.7026612  56.8083147  67.2775174  79.4521195
  56.3619647  67.6822404  78.6415208  58.0858967  66.5770790  79.2665195
  58.4626406  66.2463851  80.2344062  57.9175578  65.3392048  78.3519390
  57.1735994  65.6283465  77.6096303  58.8897216  65.2355820  77.8700054
  57.5213583  64.0207810  78.9744939  58.2152932  63.8103227  79.7882890
  56.0963134  64.0380195  79.5141964  55.4017175  64.2479734  78.7008363
  55.8608847  63.0674903  79.9509425  56.0056086  64.8109436  80.2773879
  57.5828561  62.9290032  77.9629341  58.5989038  62.8475759  77.5767787
  57.2945785  61.9859897  78.4273939  56.9001496  63.1534294  77.1433954
  59.0644138  67.4930874  78.6078791  58.6567829  68.2600417  77.7513325
  60.3509222  67.4332214  79.0015669  60.6197006  66.8370822  79.7712913
  61.3814203  68.2357929  78.3573158  60.9481953  69.1844535  78.0403642
  62.5717314  68.5280721  79.3134170  62.8992692  67.5671300  79.7101645
  63.3660505  68.9586081  78.7036663  62.2447528  69.4854336  80.4853206
  61.4369924  69.0121540  81.0435593  63.1414747  69.5203097  81.1040091
  61.7525923  71.1886916  80.0445903  63.1821719  71.8917379  79.7859397
  63.7014609  71.3743199  78.9792697  63.0298302  72.9349068  79.5090075
  63.7820754  71.8414693  80.6946146  61.8263449  67.4274719  77.1500187
  61.6192374  66.2287546  77.1281262  62.3648383  68.0731708  76.1319329
  62.4650657  69.0781325  76.1422250  62.8303784  67.3456283  74.9614440
  62.1342143  66.5321778  74.7571084  62.8501333  68.0282797  74.1119169
  64.2217616  66.7670161  75.1636386  64.8018071  66.8667798  76.2582419
  64.7665995  66.1413772  74.0991756  64.1868334  66.0264206  73.2801789
  66.0995965  65.5295495  74.0989356  66.6280212  65.7014649  75.0366517
  66.0029312  64.0003472  73.8315064  65.3516153  63.8525500  72.9700867
  67.3675372  63.3595799  73.5556501  68.0192976  63.5065741  74.4168711
  67.2386938  62.2922109  73.3761406  67.8165307  63.8235832  72.6774673
  65.3171979  63.2894279  74.9886055  65.9752769  63.3580081  75.8548212
  64.3872420  63.8185694  75.1966697  65.0113816  61.8145559  74.6944169
  65.9409668  61.2846271  74.4866987  64.5227353  61.3648572  75.5587635
  64.3529332  61.7451885  73.8285452  67.0031689  66.2387367  73.1029982
  66.5499649  66.6757817  72.0535346  68.2654435  66.3650539  73.4687301
  68.5180055  66.0170680  74.3826325  69.3031269  66.9658674  72.6500225
  70.2588268  66.8411093  73.1591122  69.3312300  66.4451663  71.6928496
  69.0681356  68.4264407  72.4042772  69.1513500  69.2280837  73.3302674
  68.7656748  68.7667261  71.1533490  68.7899975  68.0284648  70.4645254
  68.4725444  70.1380734  70.6981149  69.3098405  70.7951886  70.9331341
  68.2436571  70.1550763  69.1573465  67.9542544  71.1750962  68.9045529
  69.2089737  69.9289999  68.7044078  67.1820629  69.1721076  68.6220837
  67.5358268  68.1563704  68.7988035  66.2558808  69.3347738  69.1732902
  66.9287496  69.3681530  67.1393941  66.5589208  70.3795026  66.9705817
  67.8629125  69.2279471  66.5955362  65.9396850  68.4148467  66.6275958
  66.0868589  67.4388536  66.8417843  64.8584198  68.7562539  65.9255076
  64.6208551  70.0313120  65.6341388  65.2630413  70.7456122  65.9463442
  63.7992628  70.2799185  65.1018978  64.0209840  67.8260956  65.4888352
  64.2028986  66.8529955  65.6890435  63.2048661  68.0947696  64.9579262
  67.2546526  70.7369403  71.4381095  67.2092149  71.9392986  71.7033510
  66.2940144  69.8721667  71.7871108  66.4357240  68.9116408  71.5088881
  65.0538367  70.2191690  72.4509178  64.8162465  71.2729254  72.3051526
  63.9249429  69.3708750  71.8374277  64.1934059  68.3178423  71.7528758
  63.0178371  69.4672604  72.4340591  63.5830825  69.8349316  70.4644121
  62.4846861  69.2947115  69.7915476  62.4715126  69.8735348  68.6109160
  61.6968273  69.5721888  67.9058257  63.4593917  70.7632882  68.4984542
  63.6541026  71.3617277  67.7084810  64.1895524  70.7327277  69.6643107
  65.0670659  71.3698266  69.7746571  65.0921603  70.0577432  73.9548416
  64.0255793  70.0190060  74.5560449  66.2903560  70.0036298  74.5808670
  67.1295990  70.0134897  74.0190189  66.4204719  69.7627867  76.0167318
  65.7709509  68.9357503  76.3034936  67.8510819  69.4114062  76.3960309
  67.9030899  69.1091359  77.4419884  68.2232778  68.6035686  75.7659765
  69.0242437  70.7740725  76.2091057  70.0922847  70.0950841  76.6179595
  65.8555272  70.8926524  76.9137819  65.5606978  70.6099931  78.0769162
  65.6809873  72.1378772  76.3965286  66.0213804  72.3350096  75.4662755
  65.1065789  73.2442617  77.1781661  64.9532262  72.9011870  78.2013385
  65.9984989  74.4848849  77.2075891  65.8567487  74.9615343  76.2376347
  65.6558208  75.1559879  77.9951757  67.4535319  74.2251397  77.4026724
  68.2093245  74.3807048  76.4579275  67.8714837  73.7793744  78.5904517
  68.8535217  73.5978018  78.7412250  67.2035606  73.6259297  79.3323642
  63.7134896  73.6153363  76.6893163  63.1638005  74.6477065  77.1031865
  63.1507641  72.7747534  75.7999714  63.7156823  72.0082283  75.4632131
  61.8160738  72.9463718  75.2418120  61.4559022  73.9426382  75.4983831
  61.7870469  72.7910604  73.6997413  62.5879586  73.4128069  73.2996526
  61.9955746  71.7442438  73.4788540  60.4508077  73.1957790  73.0509349
  59.7672695  72.3537083  73.1595312  60.0644508  74.0506161  73.6059879
  60.5767159  73.5664250  71.5583617  59.8869247  74.3900853  71.3743217
  61.5996733  73.9073638  71.3989301  60.2673721  72.4199207  70.5987684
  61.1332227  71.7578283  70.6048392  59.4037615  71.8915388  71.0026106
  59.9765558  72.8502346  69.1896844  60.7768350  73.3394896  68.8151414
  59.7832454  72.0371932  68.6225029  59.1740109  73.4634116  69.1837869
  60.9293439  71.9484520  75.9320063  61.2698513  70.7613036  76.0344923
  59.8284945  72.4630838  76.4784976  59.7142430  73.4637652  76.4031137
  58.8204111  71.7082295  77.1975795  59.2405848  70.7910726  77.6103463
  58.3049234  72.5823011  78.3614748  59.2145052  72.9512090  78.8354655
  57.7747334  73.4139052  77.8973269  57.4258184  71.9442969  79.3959780
  56.6329870  71.4001465  78.8827338  58.1828943  71.0113896  80.2642194
  58.9756639  71.5549451  80.7781867  57.5094048  70.5709311  80.9994126
  58.6211042  70.2213261  79.6544062  56.7978960  72.9884811  80.2403642
  56.1957938  73.6481957  79.6155851  56.1612234  72.5168583  80.9889102
  57.5743156  73.5692494  80.7383399  57.6949513  71.3217124  76.2243751
  57.2777204  72.1367283  75.4128609  57.2290011  70.0678786  76.3038564
  57.6453369  69.4851025  77.0159912  56.1923257  69.4812217  75.4407812
  55.8736661  70.2090582  74.6945847  56.7547404  68.2206958  74.7018940
  57.1603099  67.4933651  75.4051739  55.9225731  67.7741509  74.1576557
  57.8456097  68.4928321  73.6808289  59.1544706  68.7208153  74.0813133
  59.4029340  68.6754741  75.1416482  60.1438842  69.0045168  73.1471676
  61.1576159  69.2319138  73.4769239  59.8418869  68.9980416  71.8028697
  60.6203104  69.2139261  71.0710564  58.5649690  68.7207375  71.3845779
  58.3291920  68.7043821  70.3205094  57.5699884  68.4600546  72.3217492
  56.5579269  68.2261687  71.9914025  54.9901015  69.0832360  76.2469905
  55.1697740  68.4086814  77.2512912  53.7754678  69.4801285  75.8305843
  53.7034115  70.1203221  75.0527286  52.5307377  69.0299051  76.4840275
  52.7729769  68.7264326  77.5025184  51.4240032  70.1167483  76.5402733
  51.8339582  70.8517176  77.2329899  51.3573361  70.5545759  75.5443002
  50.0169857  69.6953583  77.0115424  49.6580896  68.9127222  76.3431300
  50.0147945  69.1809116  78.4396060  50.3731559  69.9632023  79.1087078
  49.0010492  68.8976096  78.7227338  50.6686038  68.3119748  78.5143230
  49.0453633  70.8526446  76.8928355  48.9874525  71.1738974  75.8528631
  48.0585980  70.5353198  77.2300303  49.3903300  71.6821319  77.5101262
  52.0815304  67.8441005  75.6556543  51.9580738  67.9697443  74.4405106
  51.9156319  66.6785914  76.2948094  52.1726104  66.6271185  77.2702129
  51.5555215  65.4379047  75.6053595  51.1746403  65.6389269  74.6040510
  52.7895919  64.4557663  75.5116770  52.4458522  63.4846374  75.1555140
  53.8236545  65.0034449  74.5587547  54.1682334  65.9744203  74.9145252
  54.6681569  64.3164710  74.5041339  53.3825382  65.1155952  73.5683317
  53.4646071  64.1484417  76.8526151  54.5108766  63.9390943  76.6299169
  53.3955197  65.0588448  77.4480080  52.9005083  63.0450856  77.5937438
  52.9696627  62.1341750  76.9991351  53.4511141  62.9130536  78.5251407
  51.8543044  63.2539248  77.8172243  50.2856173  64.8150896  76.2263011
  49.6663501  65.4570455  77.0610686  49.8711882  63.6036784  75.7605238
  50.3659469  63.3079998  74.9311341  48.7271072  62.8015347  76.2116927
  48.6441233  61.9098660  75.5902912  48.8907432  62.3623684  77.6884510
  49.9431025  62.0894130  77.7667741  48.6941781  63.2329248  78.3142254
  48.0231141  61.1900406  78.1578423  46.9710444  60.9079030  77.4946344
  48.3652984  60.5791449  79.2138292  47.3753282  63.4915224  75.9248103
  46.6921093  64.0049227  76.8237464  46.9499560  63.3992303  74.6662975
  47.5542433  62.9390489  74.0005879  45.7432097  64.0392918  74.1730492
  45.4330789  64.8345856  74.8508589  46.0159096  64.6520813  72.7880291
  46.4315164  63.9447320  72.0703752  45.1003995  65.0836895  72.3834855
  47.0086162  65.7797688  72.9062644  46.5921719  67.0637692  73.2770407
  45.5321443  67.2440814  73.4557274  47.5149266  68.1096634  73.4195160
  47.1752881  69.1052594  73.7050593  48.8541842  67.8761737  73.1975145
  49.5752900  68.6859775  73.3085281  49.2859362  66.6060677  72.8314939
  50.3456633  66.4257165  72.6510719  48.3630493  65.5588897  72.6942468
  48.7070186  64.5618598  72.4190806  44.5068050  63.1397924  74.1687632
  43.5113136  63.4916669  73.5412290  44.5572248  62.0437468  74.9207286
  45.4026843  61.8672383  75.4443147  43.4598699  61.0829940  75.0311559
  43.2434544  60.7386738  74.0198661  43.8333559  60.2495116  75.6260632
  42.1802645  61.6044021  75.6599050  41.0942793  61.0728964  75.4016825
  42.2867446  62.6367641  76.5058109  43.1997779  62.9779699  76.7704769
  41.1103137  63.2403099  77.1361100  40.2446239  62.6086090  76.9370261
  41.2669095  63.3957842  78.6657634  42.1656028  64.0096514  78.7259017
  40.4183603  63.9552479  79.0595460  41.4644639  62.1181207  79.4919942
  42.2995357  61.5573436  79.0721312  41.7578202  62.4481897  80.9616372
  40.9229310  63.0086031  81.3823458  41.8931644  61.5232720  81.5222706
  42.6660343  63.0474784  81.0256740  40.2781983  61.1675049  79.3570705
  40.1565607  60.8835252  78.3117671  40.4569206  60.2751933  79.9570201
  39.3726529  61.6638814  79.7059214  40.7796415  64.6011118  76.4973510
  39.8382939  65.2623796  76.9452164  41.5348212  65.0171816  75.4564713
  42.3086396  64.4502371  75.1404357  41.3108188  66.3014955  74.8092776
  41.3431125  67.0888541  75.5623532  42.3924132  66.5765688  73.7699546
  42.3666279  65.8014142  73.0040757  42.2152484  67.5482198  73.3088610
  43.3695238  66.5769577  74.2530220  39.9307295  66.3411647  74.1775904
  39.4839961  65.3153775  73.6603720  39.2319909  67.4902448  74.2552329
  39.6208355  68.2538012  74.7899112  37.8923624  67.6565680  73.6767123
  37.6969943  66.8598898  72.9589141  36.8074762  67.5962429  74.7958499
  36.9254497  66.6252715  75.2768862  37.0616412  68.3851320  75.5037723
  35.3484653  67.7680241  74.3392107  35.2952752  68.7232488  73.8168913
  35.1435900  66.9591365  73.6379056  34.3079016  67.7431647  75.4660750
  33.3218415  67.7389722  75.0015678  34.4503808  66.8172876  76.0233457
  34.4155523  68.9214074  76.4099986  35.4689312  69.0734721  76.6453064
  34.0269270  69.8026322  75.8995944  33.6537668  68.7013755  77.6679369
  34.0140036  67.8851062  78.1412588  33.7523160  69.5087042  78.2667761
  32.6775871  68.5608727  77.4501499  37.8349883  68.9711197  72.8743714
  38.5345792  69.9402084  73.1958518  37.0261231  68.9878081  71.8064035
  36.5629215  68.1393792  71.5136372  36.8218499  70.1940990  71.0160310
  37.7756797  70.7020710  70.8736498  36.2309010  69.8558643  69.6294299
  36.4684204  68.8158188  69.4058474  35.1490864  69.9771334  69.6848472
  36.7857529  70.7503970  68.5297956  36.5977907  71.7794243  68.8361841
  37.8606632  70.5735500  68.4924447  36.1857066  70.5143034  67.1535114
  36.3622332  69.4711014  66.8914675  35.1130229  70.6935682  67.2264034
  36.7760284  71.4109402  66.0826427  36.9079306  72.4056595  66.5083606
  37.7474498  71.0058964  65.7991305  35.8976297  71.4990313  64.8690185
  34.9975828  71.8747345  65.1314347  36.3285488  72.1041758  64.1847606
  35.7756280  70.5774654  64.4741375  35.8771976  71.0885757  71.8527469
  34.8963245  70.5766083  72.4146901  36.2169072  72.3886090  72.0210799
  37.1083105  72.7277533  71.6886938  35.3648638  73.3088714  72.8075594
  34.5647573  72.7297227  73.2685536  36.1442173  74.0575078  73.9257780
  35.3737641  74.5491638  74.5197271  36.6875026  73.3490636  74.5511163
  37.1019141  75.0918750  73.3899737  36.6775452  76.3894666  73.1235135
  35.6407976  76.6547811  73.3305453  37.5517997  77.3448699  72.6006354
  37.2102556  78.3666212  72.4348834  38.8570335  76.9949525  72.3034675
  39.6838851  77.9288374  71.7413986  39.2536803  78.7757615  71.6026793
  39.3061985  75.7117085  72.5648974  40.3450887  75.4425239  72.3742481
  38.4191769  74.7584601  73.0763143  38.7535103  73.7334281  73.2364101
  34.6271241  74.2829256  71.8866014  33.7330956  74.9665232  72.3356006
  35.0124455  74.3549123  70.6187425  35.8237196  73.8301766  70.3244873
  34.3823492  75.2535277  69.6553946  33.3040541  75.2530477  69.8147019
  34.9065387  76.7108350  69.8058106  34.2461498  77.3587420  69.2294408
  34.8436739  76.9753771  70.8613510  36.3382654  76.8884032  69.3232983
  36.9850014  76.3792837  70.0378826  36.4144745  76.3990922  68.3522838
  36.7666384  78.3275154  69.1952180  36.1228082  78.8477625  68.4860463
  36.7119518  78.8218344  70.1651445  38.1554210  78.3946169  68.7089739
  38.4484313  77.6293437  68.1185492  39.0404023  79.3554969  68.9941087
  38.6978602  80.3749869  69.7780602  37.7639859  80.4229788  70.1597351
  39.3733548  81.0959939  69.9877161  40.2684251  79.3120587  68.4825813
  40.5327601  78.5490713  67.8758876  40.9303032  80.0422819  68.7034662
  34.5371123  74.7524467  68.2096024  35.5281163  74.0839331  67.9029452
  33.5646222  75.1048325  67.3193961  32.7637475  75.6131675  67.6662311
  33.6072941  74.7618664  65.8889408  33.8413477  73.7025693  65.7830741
  32.2654182  75.0406309  65.1918458  31.5613149  74.3548894  65.6631167
  31.9435955  76.0673903  65.3659014  32.3111228  74.7711344  63.6978372
  32.2821809  73.5830307  63.3075938  32.4506449  75.7440993  62.9215982
  34.7073450  75.5787831  65.2354353  34.8502487  76.7547839  65.5618961
  35.4987286  74.9607807  64.3351609  35.3849733  73.9687467  64.1834124
  36.6224106  75.6373982  63.6866267  37.2643850  76.0681518  64.4550142
  37.4628748  74.6831452  62.8224583  37.8402129  73.9113915  63.4933618
  36.8458940  74.2229671  62.0506611  38.6476607  75.3688635  62.1539872
  39.5284387  75.9619338  62.8060177  38.6721562  75.3511142  60.8285684
  39.4353410  75.7912804  60.3347035  37.9275200  74.8975067  60.3188058
  36.2234533  76.8903906  62.8940000  36.8711616  77.9277286  63.0691137
  35.1725428  76.8193530  62.0573462  34.7109165  75.9404450  61.8715469
  34.8060470  77.9808828  61.2455659  35.6978459  78.5835599  61.0735938
  34.2070024  77.5839339  59.8776222  33.8021319  78.5022397  59.4523064
  35.0471340  77.2433766  59.2723953  33.1188604  76.5055705  59.8930291
  33.5599975  75.5870635  60.2801257  32.3251854  76.8371071  60.5625554
  32.5400675  76.2462109  58.5104213  33.3589742  76.0655511  57.8141075
  31.9012456  75.3642037  58.5559112  31.7456312  77.3770716  58.0184507
  32.2410980  78.1099229  57.5310690  30.4311032  77.4989479  58.1805782
  29.7413366  76.5573338  58.8130740  30.2176296  75.7429399  59.1736396
  28.7434563  76.6596971  58.9307872  29.7936262  78.5608398  57.7026099
  30.3099004  79.2784086  57.2140856  28.7953028  78.6462586  57.8297032
  33.9220899  79.0098750  61.9952031  34.3261161  80.1686823  62.1010254
  32.7515442  78.5971899  62.5220266  32.4787029  77.6403462  62.3485127
  31.7968335  79.4818547  63.2185550  31.6370850  80.4208482  62.6885825
  30.4372744  78.7806943  63.3983412  29.6982780  79.5440368  63.6418424
  29.9996942  78.0342305  62.1699487  30.7380162  77.2703539  61.9260782
  29.0356778  77.5607799  62.3560027  29.9075019  78.7292751  61.3353745
  30.4927512  77.9009014  64.5153124  29.6434183  77.4665865  64.6230366
  32.3064685  80.0478592  64.5748754  31.8093930  81.0773962  65.0360507
  33.2719855  79.3570564  65.2020033  33.4966177  78.4831870  64.7481399
  33.8719144  79.6345351  66.5239896  34.5352054  78.8075406  66.7774150
  34.6842482  80.9543765  66.5737228  33.9983377  81.7551027  66.2972020
  35.0007051  81.0887725  67.6080790  35.9150338  80.9930730  65.6522682
  35.8597758  80.1420649  64.9734217  35.8817440  81.9185360  65.0773664
  37.2096801  80.9313349  66.4337901  37.2074876  81.7539398  67.1489231
  37.2302553  79.9833249  66.9713338  38.4226800  81.0300721  65.6048600
  38.8149643  81.9535550  65.4891377  39.0392333  79.9980273  65.0223391
  38.5418546  78.7689457  65.1260397  37.6917501  78.6139383  65.6489118
  39.0165240  77.9962071  64.6814459  40.1454253  80.1912324  64.3156624
  40.5224219  81.1231493  64.2181712  40.6054034  79.4055010  63.8784610
  32.8073128  79.5105640  67.6540230  33.0467361  79.9732378  68.7744294
  31.6580058  78.8263601  67.3632027  31.5345544  78.5114270  66.4115324
  30.5846080  78.5648271  68.3264897  30.2588646  79.5028266  68.7760977
  29.3797039  77.9069922  67.6352450  29.1489285  78.5236107  66.7665543
  29.7140755  76.9239020  67.3038397  28.1224471  77.7539843  68.5021361
  27.4001549  77.1475623  67.9556499  28.4023624  77.2426975  69.4231873
  27.4715342  79.0782704  68.8608080  27.6052981  79.5850237  69.9868801
  26.7513465  79.6713347  67.9106156  26.2987754  80.5539478  68.1010754
  26.6609869  79.2358200  67.0038282  31.1080369  77.6632347  69.4652462
  31.5810672  76.5526097  69.2029365  31.0378407  78.1518723  70.7180861
  30.6935175  79.0917072  70.8531830  31.4858567  77.4082565  71.8832107
  32.4467798  76.9386999  71.6728713  31.6482412  78.3323044  73.0786302
  32.0490227  79.3100978  72.8114346  30.6546986  78.4530679  73.5103586
  32.5206508  77.7951657  74.1604044  33.8275585  78.2234962  74.3128059
  34.3203037  77.5141525  75.3166738  35.3486525  77.7153535  75.6168668
  33.4220268  76.6470725  75.7923509  33.5401509  75.9799058  76.5413737
  32.2691819  76.8205420  75.0665286  31.3897042  76.2158166  75.2877243
  30.5109145  76.2846326  72.2136133  29.3199315  76.3697113  71.9291418
  31.0251134  75.2281595  72.8013047  32.0283630  75.1877268  72.9106428
  30.2384431  74.0639378  73.1966961  29.5505970  73.7344893  72.4179595
  31.1198976  72.8584527  73.6566663  30.4855205  72.1052325  74.1239193
  31.8298438  72.2489065  72.4536272  32.4648118  73.0014536  71.9860920
  32.4429601  71.4089029  72.7800977  31.0902203  71.8998102  71.7330802
  32.0937938  73.2511684  74.8075445  32.9305860  73.7618268  74.3309865
  31.5480479  73.9562035  75.4345904  32.6189944  72.1101849  75.6664479
  33.1652897  71.4049301  75.0401278  33.2856937  72.5078325  76.4316196
  31.7827508  71.5993050  76.1437301  29.2201754  74.4524214  74.2645825
  29.5211843  75.3551942  75.0503039  28.0244350  73.7992815  74.3093929
  27.5609556  72.7153051  73.5555871  28.3857302  72.0119534  73.4409429
  27.2663820  73.0918069  72.5760098  26.3972134  72.1259524  74.3205561
  26.7415146  71.3750876  75.0317226  25.6744670  71.6763494  73.6396771
  25.7931792  73.3394828  75.0363295  25.2548238  73.1315967  75.9610218
  25.1442321  73.8889207  74.3543580  27.0402290  74.1560697  75.3366937
  26.7871187  75.2031128  75.1701582  27.4986432  73.9675331  76.7807018
  28.3944497  73.1719172  77.0771626  26.8446701  74.7121700  77.6740450
  26.1731540  75.3779440  77.3192062  27.0615347  74.6535387  79.0952621
  28.1145008  74.4553957  79.2955144  26.6762662  75.9768011  79.7650962
  27.2217329  76.7800050  79.2696884  25.6076615  76.1027352  79.5909570
  26.9538753  76.0217624  81.2546044  28.2444976  76.1983907  81.7395639
  29.0618908  76.2872849  81.0239763  28.5052214  76.2625544  83.1057832
  29.5239730  76.4182668  83.4607488  27.4715226  76.1212093  84.0123705
  27.7479922  76.1650532  85.3588876  28.6803187  76.2963580  85.5463069
  26.1753443  75.9454319  83.5573176  25.3556498  75.8306112  84.2665549
  25.9199443  75.9155141  82.1826199  24.8975551  75.8075231  81.8204620
  26.2312398  73.5008938  79.6306817  24.9956516  73.4345710  79.4674207
  26.9465204  72.5472617  80.1986021  27.9515649  72.6436978  80.2247713
  26.3507147  71.3723384  80.8130943  25.2645447  71.4560320  80.7766352
  26.7656850  70.0975681  80.0874453  27.8442836  70.1598009  79.9430453
  26.5366535  69.2698525  80.7586617  26.0964667  69.8677237  78.7637367
  25.0261118  70.0533383  78.8531151  26.5193648  70.5367012  78.0142513
  26.3257589  68.4321142  78.3446824  25.9207725  68.2610806  77.3472695
  27.3916248  68.2040325  78.3475057  25.6520985  67.5355878  79.2841712
  25.3735109  67.9357936  80.1686618  25.4012785  66.2533929  79.0633648
  25.7683131  65.6840862  77.9200624  26.2411223  66.2320339  77.2155733
  25.5727713  64.7060681  77.7608653  24.7659864  65.5311525  79.9770024
  24.4734692  65.9615042  80.8426416  24.5777681  64.5542687  79.8027307
  26.8297047  71.2691640  82.2388017  27.8665649  71.8235627  82.6261119
  26.0566568  70.5557454  83.0126413  25.1600622  70.2886410  82.6320197
  26.3604380  70.1852342  84.3812710  27.4050638  70.4105425  84.5959623
  25.4779578  70.9585431  85.3720843  24.4488761  70.9311191  85.0138413
  25.5369751  70.4685857  86.3439684  25.9292610  72.4036816  85.5054269
  26.9804931  72.3110076  85.7782332  25.8493637  72.8593331  84.5184632
  25.2198160  73.2727112  86.5206812  24.0094647  73.0481096  86.7579635
  25.8644654  74.2136115  87.0408041  26.1550947  68.6727062  84.3997982
  25.9761895  68.0805245  83.3210361  26.2303796  68.0287368  85.5660026
  26.4795258  68.5227013  86.4110023  26.0284895  66.5709664  85.6426304
  26.1743038  66.2307171  86.6678464  24.6147408  66.2060638  85.2047207
  24.4608802  66.5986414  84.1995795  24.5503978  65.1181789  85.1831201
  23.5501884  66.7556811  86.1289177  23.5900625  66.5820042  87.3640061
  22.6047843  67.4096001  85.6472135  27.0629544  65.7614868  84.8034295
  26.7189839  64.7637497  84.1600882  28.3285443  66.2202708  84.8103957
  28.5232488  67.0651082  85.3285070  29.4398491  65.5552457  84.1214630
  29.0355200  64.8078115  83.4388508  30.3039697  66.5459810  83.3124487
  30.7250889  67.2332717  84.0461989  31.1032382  65.9474178  82.8754224
  29.6028818  67.3441317  82.2094010  28.6113999  67.5935170  82.5873845
  30.1795089  68.2588814  82.0721556  29.4688137  66.6146857  80.8593583
  29.0219085  65.6431630  81.0703521  28.7838174  67.2045814  80.2503406
  30.7561881  66.4213473  80.1174241  31.2737753  67.3784007  80.0522100
  31.3757716  65.7102894  80.6638782  30.4982234  65.9030081  78.7468506
  29.9244755  66.5619462  78.2401814  31.3760879  65.7792535  78.2629718
  30.0190011  65.0159795  78.8070614  30.3169869  64.9053604  85.1793029
  30.5786823  65.5261473  86.2145846  30.7708633  63.6599026  84.9312145
  30.4684594  63.1711310  84.1007005  31.6889495  62.9739912  85.8460147
  31.3907171  63.1819515  86.8735891  31.6804709  61.4495176  85.6301777
  31.6394155  61.3010848  84.5511127  32.6030694  61.0200431  86.0206436
  30.5033457  60.7291115  86.2643112  29.7243025  61.2958896  87.0524750
  30.3748081  59.4370967  85.9693997  29.6105926  58.9062120  86.3621285
  31.0421094  58.9938366  85.3543141  33.0505433  63.5588558  85.5503096
  33.2801426  63.9687219  84.4075835  33.9321803  63.6563867  86.5680257
  33.6245200  63.4239840  87.5015317  35.2715608  64.2383830  86.4003532
  35.1861679  65.1663083  85.8348784  35.9498098  64.5472438  87.7595704
  35.3165518  65.3312183  88.1748623  35.8379593  63.6388681  88.3515528
  37.4305972  65.0070267  87.7936478  38.0401867  64.2130986  87.3621624
  37.6553560  66.2982629  87.0172004  37.0464060  67.0928244  87.4484205
  38.7076165  66.5772827  87.0719410  37.3730915  66.1498956  85.9748884
  37.8880975  65.2098946  89.1990986  37.7976903  64.2736542  89.7498980
  38.9293580  65.5321946  89.1998565  37.2719754  65.9722635  89.6758440
  36.1931426  63.4111001  85.4888928  36.2936600  62.1809987  85.6074671
  36.8635227  64.1583661  84.5786543  36.5926994  65.1302725  84.6250440
  37.8349328  63.7572885  83.5623408  37.9142585  62.6735349  83.4769911
  37.3857889  64.3340934  82.1848442  37.1954646  65.3987512  82.3204198
  38.4168828  64.1405245  81.0884495  38.6073976  63.0760167  80.9519697
  38.0414673  64.5642626  80.1569946  39.3434761  64.6420544  81.3677224
  36.1624023  63.7114925  81.7844827  35.8853983  64.0661937  80.9365109
  39.2204746  64.2756914  84.0073951  39.3875915  65.4805395  84.2528031
  40.1872791  63.3624968  84.0912447  39.9684359  62.4005158  83.8749126
  41.5535371  63.6895427  84.4828887  42.2360691  63.1053245  83.8656866
  41.7175711  64.7514698  84.2998503  41.8305621  63.3929580  85.9382363
  40.9915520  62.7902437  86.6144156  43.0250135  63.7806427  86.4372088
  43.7158713  64.1908580  85.8252135  43.3949848  63.5337679  87.8430395
  42.9800623  62.5975743  88.2165099  44.9091774  63.5241099  88.0727272
  45.0833885  63.3258487  89.1302919  45.6227534  62.4870086  87.2431495
  45.4493767  62.6848989  86.1853785  46.6922158  62.5288204  87.4495498
  45.2433048  61.4964295  87.4938932  45.4313054  64.8273359  87.8325491
  46.3805090  64.8232092  87.9760620  42.7310737  64.5414422  88.7661076
  42.6851794  65.7373210  88.4547869  42.2553128  64.0562757  89.9137617
  42.3197741  63.0588361  90.0588766  41.5656534  64.8594520  90.9204214
  40.7661049  65.3740672  90.3875119  40.9424503  63.9529265  91.9769362
  41.7310652  63.4375461  92.5251784  40.3521209  64.5533085  92.6691449
  40.2981688  63.2191672  91.4925831  42.4359277  65.9263012  91.5915617
  41.8926752  66.9400375  92.0341084  43.7662645  65.6963057  91.6898058
  44.1317474  64.8076392  91.3786893  44.6796311  66.6280563  92.3562106
  44.2916122  66.8661987  93.3465786  46.0862244  66.0256522  92.5112502
  45.9579777  64.9780085  92.7834536  46.5718395  66.0907039  91.5375735
  46.9556329  66.7237693  93.5631068  46.8907090  67.8004800  93.4063269
  46.5679378  66.4770194  94.5514939  48.4030293  66.2856976  93.4647870
  48.6898451  66.2853447  92.4131998  49.0159998  67.0050763  94.0077979
  48.6455663  64.9482051  94.0188651  47.8792798  64.5020707  94.5024648
  49.8009714  64.2948496  93.9205406  50.8253060  64.8316125  93.2684293
  50.7279118  65.7426433  92.8434148  51.6972453  64.3264522  93.2003509
  49.9409866  63.1021356  94.4758289  49.1676163  62.6872767  94.9757194
  50.8205941  62.6120155  94.3972690  44.7403082  68.0046769  91.6931728
  44.7595324  69.0149314  92.4019523  44.7497516  68.0484006  90.3585608
  44.7774799  67.2057217  89.8024828  44.8714283  69.3215518  89.6814111
  45.0245931  70.1146352  90.4132980  46.0735530  69.3082051  88.7081968
  45.7719453  68.7786005  87.8045094  46.2875071  70.3488548  88.4645335
  47.3177880  68.6577398  89.2838061  48.1910849  69.3717510  90.1055492
  47.9898801  70.4261650  90.2948302  49.3063223  68.7592922  90.6814909
  49.9512637  69.3156861  91.3616219  49.5766507  67.4303982  90.4029138
  50.6970043  66.8136356  90.9083055  51.2345090  67.3968743  91.4491576
  48.7253045  66.7066677  89.5841210  48.9279707  65.6554674  89.3791699
  47.6117742  67.3220224  89.0236615  46.9499085  66.7574589  88.3669257
  43.5780289  69.7718539  88.9867363  43.6072307  70.7857747  88.2958030
  42.4454764  69.0546770  89.1937705  42.5130519  68.2336078  89.7780463
  41.1402286  69.3805859  88.5963991  41.2425910  69.4211415  87.5119746
  40.1277217  68.3100429  88.9473029  40.0075548  68.2636591  90.0296654
  39.1698041  68.5499645  88.4858575  40.4761631  67.3450396  88.5792589
  40.6254592  70.7337581  89.0704248  40.8831405  71.1109946  90.2100958
  39.9050947  71.4782563  88.2065734  39.7769982  71.1971194  87.2449847
  39.3644406  72.7703852  88.6293771  40.1249003  73.3235739  89.1805418
  38.9371000  73.6006362  87.4202542  38.6602890  74.5931361  87.7758083
  39.7924248  73.6810616  86.7493956  37.8438379  73.0264188  86.7246340
  37.6131950  73.5820361  85.9765076  38.1947389  72.5579631  89.6212244
  37.6933152  71.4355037  89.7395305  37.7818292  73.6097733  90.3461098
  38.3125886  74.4689398  90.3310567  36.6529321  73.5069076  91.2742752
  36.7389438  72.6417495  91.9316965  36.5217189  74.7926345  92.1279980
  36.7383912  75.6469367  91.4866547  35.1087065  74.9523281  92.7397127
  34.8914878  74.0985682  93.3815933  35.0686537  75.8685853  93.3287535
  34.3696102  75.0024350  91.9401346  37.5974188  74.8107025  93.2202407
  37.2165681  74.2273794  94.0585651  38.4819221  74.3227367  92.8107985
  37.9511566  76.1536813  93.6815991  37.0671949  76.6421351  94.0916290
  38.7175773  76.0831372  94.4534294  38.3325470  76.7374934  92.8438613
  35.3656010  73.1456180  90.4971200  34.6261343  72.2493021  90.9225820
  35.1355933  73.8130385  89.3394554  35.7432942  74.5823300  89.0965777
  33.9549030  73.5777502  88.5157985  33.0770679  73.5479770  89.1612581
  33.7501665  74.6625574  87.4649082  34.6951210  74.8400622  86.9514375
  33.0086297  74.3093753  86.7483291  33.2690930  75.9659885  88.0538096
  32.5400932  75.9942619  89.0621671  33.6728421  77.0781661  87.4420027
  33.3808021  77.9787986  87.7936753  34.2691739  77.0157402  86.6292345
  33.9347002  72.1932512  87.9138181  32.8605141  71.5861925  87.8829314
  35.1055852  71.6483314  87.5104689  35.9497875  72.2026788  87.5214647
  35.1810296  70.2748431  86.9950932  34.4871123  70.1606338  86.1623062
  36.5816138  69.9517203  86.5072310  37.2866702  70.0528183  87.3323217
  36.6087061  68.9294233  86.1300372  36.8566447  70.6405574  85.7085066
  34.7428499  69.2826380  88.0966451  34.0789280  68.3023036  87.7710100
  35.0549437  69.5792240  89.3907951  35.6499386  70.3788766  89.5540007
  34.6434469  68.7699940  90.5457987  34.8857939  67.7259619  90.3473949
  35.3469166  69.1999788  91.8476060  35.4715000  70.2799072  91.9271860
  34.7282273  68.8444366  92.6715680  36.7057933  68.5960822  92.0399000
  36.8692695  67.2412156  92.2650381  38.1713091  67.0559253  92.4133293
  38.5172004  66.0365602  92.5846565  38.8421930  68.2017583  92.3209252
  39.8396206  68.3436942  92.3922853  37.9180565  69.1956277  92.1043766
  38.2426533  70.2327887  92.0205002  33.1226702  68.8071200  90.7484583
  32.5258355  67.7691416  91.0363927  32.4957467  69.9856494  90.5484349
  33.0823087  70.7840643  90.3520219  31.0419211  70.1988605  90.6673056
  30.6681458  69.7167403  91.5706058  30.7291052  71.7077214  90.7481942
  31.0599731  72.0794277  89.7784210  29.6478678  71.8189744  90.8297332
  31.4048485  72.5038223  91.8530695  32.4837581  72.3733249  91.7692526
  31.0682465  73.9612915  91.7470620  29.9894703  74.0926360  91.8312599
  31.5640396  74.5084773  92.5488585  31.4062159  74.3436558  90.7839034
  31.0295069  71.9818085  93.2212530  31.3367693  70.9397846  93.3099972
  31.5305617  72.5742726  93.9867801  29.9501716  72.0544438  93.3548883
  30.2290163  69.5544025  89.5114680  28.9945027  69.6050810  89.5100915
  30.9379373  68.9580582  88.5551326  31.9446478  68.9522194  88.6363673
  30.3367091  68.3150598  87.4002262  31.0318740  67.5483454  87.0581825
  29.4132524  67.8435848  87.7364382  30.0228158  69.2477530  86.2451433
  29.4521974  68.8024355  85.2449473  30.3808228  70.5531394  86.3769996
  30.7090424  70.8289745  87.2914865  30.2085681  71.5992139  85.3507002
  29.2352900  71.6072188  84.8600222  30.4856438  73.0074499  85.9852822
  31.4282925  72.9436539  86.5288297  30.5696962  74.1373749  84.9443611
  29.6271812  74.2020922  84.4006904  30.7629157  75.0837612  85.4494549
  31.3786205  73.9278865  84.2444644  29.4538237  73.3263786  87.1082362
  28.4887476  73.3939521  86.6060781  29.4607781  72.4567796  87.7653881
  29.6945205  74.6290065  87.9594504  29.6872366  75.4991322  87.3029993
  28.9039166  74.7289450  88.7031284  30.6592688  74.5619605  88.4623077
  31.1039546  71.2412945  84.1232925  32.1669626  70.6224881  84.2954511
  30.6487255  71.5519165  82.8893320  29.7159696  71.9169578  82.7596760
  31.4367306  71.2084073  81.6931588  31.8195630  70.1943579  81.8082343
  30.6092922  71.2794627  80.3869342  29.6860483  70.7242349  80.5525903
  30.3742410  72.3279591  80.2038873  31.3376670  70.7041738  79.1786201
  31.8831882  71.5348507  78.7308666  32.0454787  69.9908337  79.6008141
  30.5012393  70.0172183  78.1154197  29.4720621  70.5824813  77.6758129
  30.8979300  68.9032498  77.7040360  32.7185263  72.0314662  81.6119199
  32.7110853  73.2482027  81.8621439  33.8236199  71.3408462  81.2946865
  33.7429908  70.3370893  81.2167740  35.1418092  71.9390142  81.1593312
  35.2929837  72.6601339  81.9625945  36.2489742  70.8865986  81.2326252
  36.0424644  70.1389205  80.4668378  37.1916215  71.3855274  81.0077110
  36.3465523  70.2062431  82.5933959  36.0976386  70.8630917  83.4268782
  35.6098460  69.4053990  82.5300354  37.7000634  69.5961332  82.8488690
  38.7247027  70.2883127  82.9051443  37.7197793  68.3090258  83.1371237
  38.6003810  67.8484744  83.3174973  36.8541822  67.7900631  83.1761196
  35.2895121  72.7706382  79.8962341  34.7301685  72.4437369  78.8504257
  36.0299755  73.8706125  80.0160108  36.3266458  74.1250027  80.9473387
  36.3574460  74.7647661  78.9216253  36.4015501  74.1987708  77.9911398
  35.3118735  75.8606910  78.7750764  35.5669144  76.4610816  77.9018155
  34.3418696  75.3883450  78.6198936  35.2536356  76.6917271  79.9172084
  34.5849824  77.3681491  79.7869933  37.7733387  75.3167190  79.1652888
  38.4680822  74.8426217  80.0771085  38.2058151  76.2922156  78.3565326
  37.6090813  76.5779016  77.5933867  39.5463409  76.8665633  78.4398705
  40.2810852  76.0991168  78.1964040  39.7195227  78.0240268  77.4796932
  38.8920596  78.7159494  77.6366875  40.6590305  78.5213255  77.7207723
  39.7397395  77.5831377  76.0343769  40.6299142  76.9880485  75.8305174
  38.8505039  76.9967854  75.8029615  39.7588091  78.8077212  75.1912183
  40.4992713  79.5076896  75.5783345  40.0123604  78.5421077  74.1649334
  38.4569379  79.4562378  75.1966651  37.7794097  79.1569176  75.8832962
  38.1131318  80.4111429  74.3427497  38.9731893  80.8315140  73.4237844
  39.8950522  80.4218498  73.3743471  38.7019732  81.5591958  72.7780131
  36.9079642  80.9608647  74.4065232  36.2510920  80.6502990  75.1080700
  36.6525340  81.6875634  73.7532521  39.9676809  77.2663279  79.8183558
  41.0734830  76.9286967  80.2096472  39.0854272  77.9262609  80.5692132
  38.2278674  78.1957333  80.1086970  39.3003991  78.3667608  81.9561162
  40.1317845  79.0709741  81.9874383  38.0474529  79.0589855  82.5242023
  38.2547540  79.2928689  83.5684360  37.9101690  79.9847230  81.9653971
  36.7923988  78.2276700  82.4351981  36.5473411  78.0763103  81.3839427
  36.9781844  77.2627915  82.9069981  35.6509220  78.9043354  83.1195317
  35.9718359  79.2611318  84.0982092  35.3136044  79.7486045  82.5182614
  34.5327970  77.9828672  83.3010528  34.6208006  77.0521999  82.9186745
  33.4155990  78.3018049  83.9369784  33.2724296  79.5107383  84.4727753
  34.0188911  80.1864777  84.3935824  32.4179106  79.7474547  84.9563685
  32.4327577  77.4186196  84.0441036  32.5375187  76.4994433  83.6388382
  31.5837356  77.6690000  84.5304880  39.7464721  77.2569971  82.9147900
  40.5734047  77.5062434  83.7973844  39.2354902  76.0411282  82.7147846
  38.5289005  75.9400246  82.0002159  39.5335817  74.8889454  83.5619412
  39.5674040  75.1899242  84.6090167  38.4409481  73.8283697  83.3924362
  38.4497628  73.3560216  82.4101385  38.6755147  73.0851814  84.1545055
  37.0563939  74.4148726  83.6626864  36.7406930  74.7015741  84.8654632
  36.3300956  74.6919280  82.6768142  40.9353665  74.3385325  83.3400090
  41.5586387  73.9132626  84.3017960  41.4571823  74.4147820  82.0915686
  40.8699620  74.7470165  81.3399758  42.8356676  74.0214628  81.7758403
  43.0177369  73.0109329  82.1415990  43.0902275  74.0481720  80.2429901
  42.5047320  74.9046787  79.9087889  44.1493935  74.2463959  80.0787507
  42.6770710  72.8123044  79.4543037  42.2981419  71.7872848  80.0875687
  42.7885032  72.8425234  78.2207111  43.7922950  74.9901184  82.4721034
  44.7694692  74.5584029  83.0833924  43.4760928  76.2919246  82.3983896
  42.6927033  76.5275094  81.8060214  44.2302297  77.3787354  83.0120091
  45.2793091  77.2957830  82.7280187  43.7015625  78.7616799  82.5553865
  42.6684392  78.8383488  82.8943221  44.3051496  79.5178576  83.0573606
  43.7594154  78.9840082  81.0480032  42.9182830  78.4391802  80.6193314
  43.6207988  80.0526898  80.8842744  45.2944587  78.4491585  80.2349695
  46.3757451  79.7741588  80.6041613  46.4752516  79.8721959  81.6851730
  47.3543618  79.5780706  80.1660296  45.9722188  80.6988599  80.1916135
  44.2512794  77.2715949  84.5355218  45.3039722  77.4706018  85.1412239
  43.1083767  76.9220269  85.1466370  42.2730454  76.8009372  84.5919676
  42.9956203  76.8170766  86.6072439  43.4384411  77.6937660  87.0799222
  41.5241596  76.7335069  87.0140958  40.9778834  77.4374584  86.3862951
  41.1892773  75.7190126  86.7978665  41.2640095  77.0507052  88.4721236
  42.1010622  76.6602773  89.0509239  41.2308214  78.1358948  88.5688768
  39.9735694  76.4592475  88.9912222  38.8891069  76.7970397  88.4664296
  40.0504366  75.6453074  89.9321058  43.8248959  75.6312794  87.1416905
  44.5143202  75.7584940  88.1589650  43.7893638  74.5043968  86.4116993
  43.1184497  74.4944135  85.6567993  44.5907567  73.3064341  86.6410106
  44.3835427  72.9126358  87.6360404  44.2645439  72.2306080  85.6143799
  44.2904695  72.6615402  84.6135180  44.9977838  71.4269784  85.6824886
  42.9712391  71.7125175  85.8717858  42.7638802  71.0338733  85.2252224
  46.0752565  73.6440267  86.5876022  46.8059804  73.2097938  87.4732066
  46.5071361  74.4766886  85.6154113  45.8740893  74.7139054  84.8650252
  47.8927614  74.9397887  85.5268218  48.5596503  74.0777785  85.5095960
  48.1309799  75.7712140  84.2542980  47.9547307  75.0198767  83.4845399
  47.3891621  76.5646577  84.1634495  49.5376257  76.3632770  84.0789404
  49.6801191  77.1368196  84.8335452  50.6379014  75.2863181  84.2307657
  50.4963330  74.5126180  83.4761497  51.6175152  75.7459870  84.0997614
  50.5761541  74.8405009  85.2235066  49.6406401  77.1338229  82.7606942
  48.9140661  77.9463323  82.7564396  50.6449189  77.5446131  82.6568833
  49.4364092  76.4601114  81.9285275  48.3439485  75.6985185  86.8065797
  49.4965230  75.5236804  87.2319555  47.4241021  76.4834608  87.4114080
  46.5224945  76.5733587  86.9651776  47.6528552  77.2031674  88.6600806
  48.5137149  77.8592054  88.5311081  46.7701728  77.8024869  88.8832116
  47.9184926  76.2613247  89.8237460  48.7699094  76.5244268  90.6816718
  47.2222961  75.1227681  89.8264432  46.4899572  74.9794259  89.1458316
  47.4172644  74.1094031  90.8552292  47.4565170  74.5898982  91.8328196
  46.2727068  73.0861620  90.8571156  46.2166880  72.6685386  89.8518536
  46.5070564  72.2929123  91.5669996  44.9432800  73.7088954  91.2185652
  44.8679307  74.7544550  92.1361781  45.7882340  75.1097905  92.5997274
  43.6529027  75.3425955  92.4642919  43.6195982  76.1869869  93.1527654
  42.4832945  74.8642414  91.8983503  41.2937491  75.4359298  92.2640003
  41.3986427  76.1426496  92.9052055  42.5262063  73.8134997  90.9945197
  41.6084123  73.4368914  90.5429437  43.7555949  73.2369479  90.6634944
  43.7956332  72.4045487  89.9609216  48.7602012  73.4311624  90.7056155
  49.4076339  73.1719853  91.7246778  49.1785871  73.1616251  89.4329518
  48.5072634  73.3433606  88.7005612  50.4440907  72.5073986  89.0715235
  50.5857264  71.5835396  89.6323471  50.5299598  72.1837291  87.5476303
  50.3858115  73.1103167  86.9919722  51.8757154  71.5709323  87.1733498
  52.0203818  70.6440029  87.7283043  51.8948494  71.3603734  86.1040513
  52.6749555  72.2698969  87.4198563  49.4021366  71.2528672  87.1273484
  48.4427750  71.7284183  87.3312570  49.4829944  71.0415783  86.0610846
  49.4715463  70.3208111  87.6882000  51.6021772  73.3676647  89.5970735
  52.4736200  72.8386091  90.2909989  51.5403394  74.7043254  89.3570289
  50.7982941  75.0212737  88.7495655  52.5324701  75.6905274  89.8215148
  53.5307649  75.3467174  89.5507726  52.3022085  77.0767837  89.1926944
  51.3029889  77.2733034  89.5813323  52.9940329  77.8277874  89.5741030
  52.2759528  77.1371536  87.6812818  51.7012561  76.2903133  87.3062005
  51.6341935  78.4466094  87.1959091  52.2086452  79.2939491  87.5702345
  51.6270156  78.4661920  86.1061083  50.6111284  78.5096899  87.5666638
  53.6548300  76.8430332  87.0898209  53.9748367  75.8456293  87.3912849
  53.6026657  76.8940848  86.0022668  54.3714091  77.5794039  87.4536500
  52.6032660  75.8020684  91.3414604  53.6988709  75.9203182  91.8895879
  51.4451035  75.7507507  92.0189302  50.5844434  75.7947743  91.4922182
  51.3672929  75.8017532  93.4936631  52.0544004  76.5678219  93.8529973
  49.9566106  76.1301456  94.0028387  49.2588144  75.4501094  93.5142383
  49.9409428  75.9548782  95.0785412  49.5428214  77.5832386  93.7143923
  49.2740087  77.6498920  92.6601637  48.6694714  77.8085084  94.3264506
  50.8588682  78.7968884  94.0763313  51.2196545  78.4049474  95.9654130
  51.5433429  77.3690597  96.0667120  52.0040447  79.0675824  96.3311282
  50.3122179  78.5602301  96.5489773  51.9285019  74.5629542  94.1288132
  52.6276027  74.6517527  95.1319254  51.7214038  73.4264679  93.4692057
  51.0910426  73.4881535  92.6824790  52.2711738  72.1151808  93.8167647
  52.0486147  71.8690801  94.8550331  51.6294083  71.0497601  92.9103720
  50.5823023  70.9163754  93.1821748  51.6925657  71.5018465  91.9205594
  52.3197886  69.7076102  92.8950851  52.1582954  68.8080048  93.9469990
  51.5666040  69.1117707  94.8105540  52.7366088  67.5402900  93.9094766
  52.6006549  66.8497245  94.7417852  53.4758285  67.1565663  92.8072011
  54.0395306  65.9131927  92.7969003  53.8550560  65.4110913  93.5940596
  53.6450409  68.0290316  91.7409753  54.2294292  67.7301529  90.8707671
  53.0616748  69.2951962  91.7879353  53.1816458  69.9819527  90.9500376
  53.8105501  72.1337013  93.6814143  54.4721482  71.5224485  94.4883257
  54.3955477  72.8007081  92.6515669  53.8698794  73.1925055  91.8832786
  55.8657429  72.8853126  92.6070123  56.2787028  71.9032059  92.8372942
  56.3904617  73.3274509  91.2451790  55.9153957  74.2904327  91.0578889
  57.4732761  73.4522326  91.2517028  56.0634401  72.4455501  90.0597707
  56.1031690  71.0574654  90.1688047  56.3697830  70.6063058  91.1245619
  55.8074730  70.2482955  89.0756890  55.8098269  69.1640257  89.1872873
  55.5126926  70.8137313  87.8565295  55.2833881  70.1753504  87.0033068
  55.5069479  72.1880951  87.7124696  55.2724395  72.6366217  86.7471045
  55.8025556  73.0026847  88.8074878  55.8312875  74.0858421  88.6889788
  56.3890009  73.8359044  93.7151754  57.4268685  73.5562909  94.3217429
  55.6048778  74.9039493  94.0228521  54.7900377  75.0186411  93.4372065
  55.9106543  75.9488229  94.9958422  56.9356001  76.2944346  94.8611651
  54.9645263  77.1381747  94.8079989  54.0148132  76.6830104  94.5269836
  54.8337264  77.7144652  95.7239033  55.3971662  78.0797658  93.7005717
  56.5628215  78.1349096  93.3273950  54.4951271  78.9178826  93.2196770
  54.7487468  79.5590523  92.4816539  53.5564633  78.9132101  93.5924896
  55.9442307  75.4331969  96.4352322  56.9615520  75.5795143  97.1152759
  54.8382636  74.8370841  96.8836409  54.0886839  74.7584836  96.2112931
  54.6835953  74.1695865  98.1755827  55.2682316  74.6858965  98.9369785
  53.2117028  74.1850814  98.5950843  52.7525722  73.3554353  98.0575104
  53.2166008  73.9670505  99.6630443  52.4142452  75.4579781  98.3406650
  52.5503326  76.1339345  99.1848594  52.7869489  75.9319451  97.4326181
  50.9231466  75.1402051  98.1759435  50.3577698  76.0711677  98.2178577
  50.7690237  74.6654378  97.2069535  50.4269612  74.2412508  99.2241417
  50.4981841  73.2496678  99.0458446  49.9060668  74.6417416 100.3781370
  49.7470893  75.9341052 100.6308588  50.0239339  76.6181712  99.9412859
  49.3499248  76.2281646 101.5117044  49.5319003  73.7533977 101.2845577
  49.6434057  72.7672773 101.0968529  49.1365113  74.0655262 102.1599674
  55.0049733  72.7111384  97.8584480  54.4541541  72.2225696  96.8819862
  55.8172757  71.9805539  98.6348932  56.3512066  72.3682149  99.3995736
  56.0537416  70.5641336  98.2582219  56.5985269  70.4728215  97.3185569
  56.8232321  69.8378051  99.3343504  56.8561250  68.7806426  99.0708626
  58.2460482  70.3678654  99.4882711  58.2139580  71.4249343  99.7522312
  58.7579905  69.8129671 100.2744658  58.7838546  70.2448179  98.5482050
  56.0893582  69.9466102 100.5609002  56.5638284  69.4897253 101.2592802
  54.7505160  69.8048025  97.8746710  54.6888620  69.1468819  96.8309310
  53.6976159  69.9808806  98.6997789  53.8427664  70.5635393  99.5118993
  52.3860527  69.3665701  98.5140197  52.3706232  68.7790382  97.5960505
  52.0842258  68.4401098  99.6921647  51.4186100  67.6422289  99.3628608
  53.0150261  68.0077419 100.0592735  51.4614725  69.1754585 100.7337815
  51.2739540  68.5898454 101.4710019  51.2508759  70.4072543  98.3908487
  51.4569960  71.5928182  98.6309774  50.0371089  69.9169515  98.1039362
  49.9925870  68.9397926  97.8523857  48.8158305  70.7015209  98.0382955
  49.0557204  71.7639881  98.0797144  48.0720663  70.4198131  96.7353498
  48.1842585  69.3414881  96.6225350  47.0150803  70.6659731  96.8367688
  48.6374367  71.1162737  95.5150391  49.7235640  71.1572353  95.5971996
  48.2592420  70.3693220  94.2750226  47.1731875  70.3283411  94.1919268
  48.6708270  70.8786610  93.4036603  48.6577995  69.3560245  94.3248278
  48.2063012  72.5751397  95.4611130  48.5626349  73.0930068  96.3515844
  48.6285286  73.0467637  94.5737597  47.1185770  72.6317868  95.4193258
  47.9262462  70.4452868  99.2756948  48.0147677  69.3644554  99.8736057
  47.0829102  71.4222478  99.6960726  46.9289866  72.7235621  99.1929239
  46.2375587  72.6931654  98.3508409  47.8997585  73.0838155  98.8524560
  46.3921043  73.5258914 100.3562566  45.8270491  74.3888235 100.0038933
  47.2034990  73.8624320 101.0016095  45.4885821  72.5258859 101.0889323
  44.4730194  72.3986400 100.7140460  45.4545252  72.7963761 102.1442877
  46.2710257  71.2353197 100.9094215  46.9849308  71.1752307 101.7309000
  45.3379900  70.0135185 100.9516730  45.0014708  69.5566489 102.0493569
  44.9319792  69.4938010  99.7700081  45.2898315  69.9694076  98.9540183
  44.0209624  68.3601570  99.5710865  43.5261873  68.1024868 100.5075174
  42.9493664  68.7425857  98.5386641  42.4059604  67.8359650  98.2724910
  42.2505824  69.4837100  98.9266535  43.5046390  69.3037213  97.2571309
  43.9660460  68.6058111  96.1817989  43.8963716  67.5192009  96.2320347
  44.4408344  69.4723676  95.2243728  44.8142005  69.2059448  94.3245305
  44.2798049  70.7588657  95.6703157  44.5537878  71.9783281  95.0433190
  44.9735601  71.9638842  94.0374953  44.2729027  73.1296212  95.7437580
  44.4853737  74.0980626  95.2909034  43.7199812  73.0882394  97.0259870
  43.4991531  74.0059929  97.5710218  43.4357830  71.8807092  97.6432230
  43.0048690  71.9050194  98.6441340  43.7017021  70.6871504  96.9542133
  44.7264330  67.0916028  99.1029641  44.0583669  66.1555017  98.6427213
  46.0683251  67.0558251  99.2103681  46.5459372  67.8822715  99.5404777
  46.8739618  65.9294012  98.7462112  46.4666415  65.5505160  97.8088556
  48.3230880  66.3544211  98.5125441  48.3242141  67.4221535  98.2933516
  48.8747161  66.1728164  99.4349465  48.9873724  65.6003379  97.3669600
  49.2381270  64.5952144  97.7060024  48.3086844  65.5375486  96.5163472
  50.2471969  66.2857745  96.9256346  50.2556531  67.4875755  96.6504242
  51.3391976  65.5399573  96.8307339  52.2097586  65.9596618  96.5373516
  51.2955031  64.5555189  97.0522588  46.8125072  64.6894605  99.6348305
  46.5648279  63.6028882  99.1107801  47.0412003  64.8501896 100.9378821
  47.2042344  65.7824448 101.2906134  47.0674085  63.7341037 101.8866779
  47.4596720  62.8721570 101.3469775  47.7615307  64.0122339 102.6797336
  45.7337115  63.3634950 102.5057792  45.6518716  63.1290404 103.7201853
  44.6769800  63.3413587 101.6677895  44.8653432  63.5968790 100.7089736
  43.2964952  63.0254815 102.0441845  43.2117078  63.0210964 103.1308726
  42.2962235  64.0687346 101.4721282  42.3085855  63.8528568 100.4037916
  41.3237138  63.8009168 101.8851641  42.5506526  65.5621911 101.6936466
  43.4874281  65.8375975 101.2091843  41.4251924  66.3823896 101.1141417
  40.4880931  66.1078538 101.5984699  41.6232511  67.4411801 101.2809837
  41.3497850  66.1916768 100.0436079  42.7073560  65.9009346 103.1585202
  43.5511112  65.3481491 103.5715635  42.8861160  66.9706390 103.2675091
  41.7979936  65.6286152 103.6942451  42.9355072  61.6218765 101.5465232
  42.5824860  61.4399757 100.3747548  43.0509079  60.6287116 102.4315527
  43.4797437  60.8202350 103.3257104  42.7275131  59.2477944 102.1028027
  42.7784911  59.1132070 101.0223460  43.7142072  58.2592509 102.7717275
  43.9761284  58.6703804 103.7466475  43.1875387  57.3144300 102.9060172
  44.9971004  58.0197076 101.9546399  45.3080960  58.9670006 101.5141646
  45.7743825  57.6607277 102.6292272  44.7684725  56.9803986 100.8327165
  44.5636286  56.0252820 101.3163385  43.8892278  57.2997059 100.2731890
  45.9361939  56.8258723  99.8889934  46.1824165  57.8078121  99.4849275
  46.7855601  56.4429442 100.4547161  45.6240175  55.8933406  98.7707127
  44.8372735  56.2482082  98.2461152  46.4268117  55.8160978  98.1627201
  45.3962509  54.9832800  99.1448932  41.2638730  58.9006979 102.3971272
  40.6418927  59.4562880 103.3085470  40.7194483  58.0090014 101.5601510
  41.3362028  57.7112124 100.8178337  39.3742605  57.4432546 101.6113579
  39.0310818  57.2315112 102.6240238  38.3832858  58.3810504 100.9501370
  38.7085655  58.5952109  99.9320857  37.3994665  57.9124340 100.9256727
  38.3283739  59.3106725 101.5166057  39.4329752  56.1107403 100.8602213
  40.2230689  55.9777765  99.9116673  38.6334418  55.1210402 101.3029278
  38.0845542  55.2972648 102.1322447  38.5939714  53.7820108 100.7171732
  39.5738715  53.3395180 100.8963243  37.5393599  52.9330382 101.4215283
  36.5516636  53.3584281 101.2437663  37.5716702  51.9155719 101.0318893
  37.7404445  52.9178957 102.4927122  38.3693766  53.7870090  99.1913534
  39.2288834  53.3014641  98.4399019  37.2485416  54.3777330  98.7417179
  36.5687517  54.6911495  99.4197703  36.8905739  54.4323271  97.3249298
  37.5353896  53.7854472  96.7300699  35.4193359  53.9989211  97.1084050
  35.3421912  52.9495386  97.3929137  34.4234409  54.8157914  97.9130988
  34.4996783  55.8652933  97.6287871  33.4134421  54.4581153  97.7129256
  34.6414401  54.7110631  98.9759294  35.1057561  54.1048985  95.7218075
  34.1948369  53.8379327  95.5784348  37.2257022  55.7893481  96.6873562
  37.2668292  56.8137172  97.3779686  37.4470106  55.7768355  95.3540479
  37.4567635  54.8708626  94.9077102  37.7501228  56.9559390  94.5390388
  38.6438138  57.4429209  94.9292492  37.9987851  56.5775863  93.0670411
  37.0697961  56.1549611  92.6843313  38.2242814  57.5008884  92.5334077
  39.1315136  55.5827366  92.8597968  40.0208906  55.9643725  93.3612582
  38.8415810  54.6326146  93.3084718  39.4326072  55.3747151  91.3812246
  38.5171295  55.0469600  90.8887044  39.7500513  56.3283759  90.9594904
  40.5171137  54.3431067  91.1666025  41.4121475  54.6754725  91.6924809
  40.1770524  53.3982557  91.5905295  40.8305806  54.1550214  89.7253727
  41.1461190  55.0303258  89.3324637  41.5570819  53.4603515  89.6267351
  40.0014602  53.8466326  89.2379767  36.6358864  58.0109834  94.6429456
  36.9432666  59.1949501  94.6274107  35.3562116  57.5921604  94.7842990
  35.1837751  56.5983497  94.7322873  34.1981722  58.4972213  94.9118543
  34.2170982  59.2358216  94.1104738  32.8869485  57.7085335  94.8202301
  32.9033017  57.1483232  93.8853524  32.8605197  57.0133577  95.6593560
  31.6379986  58.6053192  94.8583381  31.6070072  59.0937896  95.8322668
  31.7437167  59.3587408  94.0777731  30.3506293  57.8282361  94.6406771
  30.4486264  57.2252988  93.7379245  30.1816388  57.1749727  95.4967077
  29.1639087  58.7874812  94.4879780  29.3793560  59.4543737  93.6531502
  28.2807844  58.1915238  94.2577057  28.9113867  59.5967081  95.7194915
  29.7294359  60.1493348  95.9327962  28.1228357  60.2084796  95.5644983
  28.7113071  58.9789542  96.4930853  34.2434566  59.3385352  96.2029644
  33.7596308  60.4810038  96.2190049  34.8219441  58.7467604  97.2795704
  35.1130285  57.7905976  97.1342363  35.0253953  59.3432369  98.6084686
  34.1831036  59.9858196  98.8648499  35.1360586  58.2260329  99.6715932
  35.8267580  57.4752612  99.2876980  35.5512926  58.6728883 100.5749210
  33.8006388  57.5675502  99.9984641  33.1750602  58.3505624 100.4270013
  33.3438956  57.2006333  99.0793017  33.8877525  56.4203656 100.9882159
  34.9049921  55.7268579 101.1487139  32.7810518  56.1688825 101.6537901
  32.7616965  55.4195312 102.3306943  31.9559743  56.7263484 101.4847332
  36.3046403  60.2188747  98.6133341  36.3541429  61.2459585  99.2987043
  37.3405839  59.7687247  97.8670045  37.1829156  58.8920459  97.3909012
  38.6471840  60.4174261  97.7148841  39.1413097  60.5050636  98.6824887
  39.5388995  59.5662854  96.7795949  39.2058756  58.5341298  96.8884491
  39.3373728  59.9073620  95.7641375  41.0408035  59.6488544  97.0561032
  41.5556623  59.6596367  96.0954238  41.2313820  60.5852789  97.5804037
  41.5619587  58.4667962  97.9067299  42.5020980  58.7847309  98.3574566
  40.8266294  58.2858641  98.6907286  41.7857021  57.1888668  97.1186606
  40.8320851  56.8847339  96.6871303  42.4941831  57.4030699  96.3184913
  42.3172361  56.0903054  97.9705452  41.6606910  55.8913720  98.7118102
  42.4506217  55.2623248  97.4077340  43.2010847  56.3717549  98.3701660
  38.4896353  61.8367376  97.1356136  39.2064689  62.7444413  97.5512884
  37.5308603  62.0110261  96.1914976  37.0142111  61.1715869  95.9712368
  37.2033757  63.2428247  95.4599323  38.1143419  63.7991993  95.2392809
  36.5049461  62.8989004  94.1350122  35.6735356  62.2164262  94.3113206
  36.1175312  63.8742801  93.8406584  37.3824962  62.3499794  93.0293307
  38.3696148  61.4053918  93.2955338  38.5388921  61.1029838  94.3289718
  39.1352778  60.8477042  92.2711322  39.9080990  60.1143143  92.5013245
  38.9133416  61.2315638  90.9581550  39.6731618  60.7194256  89.9340803
  40.3385797  60.0967334  90.2358635  37.9114375  62.1401960  90.6685939
  37.7206524  62.4337341  89.6363454  37.1443096  62.6812390  91.7009210
  36.3387474  63.3792827  91.4730951  36.3098175  64.1780437  96.2591720
  36.4628586  65.3926406  96.1397612  35.3642612  63.6275955  97.0417007
  35.2253314  62.6284411  96.9918191  34.4422006  64.4183556  97.8669065
  33.9321463  65.1412393  97.2302095  33.3841160  63.5460098  98.5661989
  33.9214689  62.7298291  99.0491068  32.9156990  64.1716738  99.3259555
  32.3065329  62.9715042  97.6434838  31.7978794  63.8072934  97.1630373
  32.8178456  62.3751386  96.8878340  31.2852217  62.1049014  98.3680692
  31.0661791  60.9369100  97.9569165  30.7019908  62.5876114  99.3622235
  35.2136186  65.2919649  98.8694842  34.7650091  66.3905083  99.2051877
  36.3928348  64.8009431  99.3121826  36.6193657  63.8560228  99.0366670
  37.2862192  65.4834984 100.2475919  36.6927098  66.0645346 100.9534549
  38.1524518  64.4779964 101.0407078  38.5358788  63.7412967 100.3347640
  38.9849781  65.0295528 101.4774979  37.3741512  63.7638769 102.1516436
  36.9487950  64.5310401 102.7986628  36.5693798  63.2014769 101.6781974
  38.2343968  62.8177057 102.9830873  38.6393975  62.0482855 102.3257701
  39.0532433  63.3877966 103.4219338  37.4287580  62.1673235 104.0820149
  37.0282922  62.9532600 104.7223519  36.6061352  61.6188636 103.6231220
  38.2502432  61.2367214 104.8962181  39.0123124  61.7448231 105.3218740
  37.6762205  60.8241001 105.6175651  38.6210689  60.5081360 104.3031324
  38.1245754  66.5354116  99.5206595  38.1198059  67.6887625  99.9384309
  38.8016964  66.1452883  98.4142853  38.7975983  65.1560464  98.2106117
  39.6042864  67.0301662  97.5570610  40.4170855  67.5098409  98.1023766
  40.1850225  66.2451968  96.3463102  39.3832362  65.6612182  95.8944164
  40.7831200  67.2034105  95.2896125  41.5853378  67.7874403  95.7406739
  41.1805747  66.6238314  94.4564148  40.0055235  67.8751690  94.9260419
  41.2318370  65.2039987  96.8184837  42.0798917  65.7751457  97.1962338
  40.7680463  64.6572357  97.6394880  41.7222210  64.2021405  95.7430723
  42.1865773  64.7481757  94.9219032  42.4508229  63.5221813  96.1845402
  40.8747309  63.6302670  95.3651555  38.7540866  68.2347166  97.1190742
  39.1490707  69.3818955  97.3558928  37.5658401  67.9530067  96.5319039
  37.3647979  66.9760076  96.3733032  36.6021801  68.9442412  96.0587448
  37.0511014  69.5454267  95.2680839  35.3560132  68.2612752  95.5039290
  35.5845856  67.8849581  94.5068135  35.1010123  67.4267095  96.1570558
  34.2577078  69.1571071  95.4308511  33.4922981  68.6969029  95.0787715
  36.2161033  69.9310082  97.1520245  36.2989580  71.1436507  96.9345318
  35.7996655  69.4076921  98.3312123  35.6520588  68.4101890  98.3886510
  35.3981361  70.2336843  99.4670560  34.7860298  71.0584430  99.1020928
  34.5887628  69.4456404 100.5127642  35.0887070  68.4865341 100.6479316
  34.6316720  70.0114908 101.4433941  33.1230500  69.2079969 100.1262144
  33.2061066  68.6421723  99.1982894  32.7184761  68.5652841 100.9080963
  32.1914080  70.3989204  99.9140671  32.4549749  71.4907359 100.4717491
  31.1702064  70.2257877  99.2087867  36.5790402  70.9802632 100.0957106
  36.3853448  72.0966836 100.5694474  37.8038379  70.4035681 100.0481882
  37.8692849  69.4540970  99.7100748  39.0177083  71.0416279 100.5685892
  38.7930131  71.5077843 101.5279168  40.1582736  70.0251779 100.7701481
  39.7663549  69.2393288 101.4158572  40.3836010  69.6091795  99.7881741
  41.4376317  70.6013785 101.3862298  42.1707327  69.7955157 101.4215689
  41.7929895  71.3861009 100.7183723  41.2444636  71.1758423 102.7893954
  40.3698348  71.8262457 102.7794648  41.0749322  70.3503869 103.4807578
  42.4507280  71.9632226 103.2336154  43.2628658  71.2627027 103.4280495
  42.7368804  72.6348498 102.4242126  42.1765644  72.7537866 104.4578943
  41.9118084  72.1315909 105.2081453  43.0068284  73.2649220 104.7215271
  41.4243353  73.4032642 104.2778130  39.4232166  72.2001711  99.6581636
  39.7443231  73.2730869 100.1640770  39.3324809  72.0067863  98.3199788
  39.0824435  71.0813061  98.0020687  39.5815452  73.0473771  97.3104498
  40.6082342  73.4044250  97.3912314  39.3682835  72.4821569  95.8988909
  38.4535393  71.8897046  95.9173995  39.2394349  73.3274915  95.2229416
  40.5119085  71.6252631  95.4190032  41.3964763  72.2576506  95.3433281
  40.6842725  70.8478838  96.1633647  40.2399843  70.9992044  94.1065472
  39.5878371  70.1355482  94.2365512  39.7596910  71.7201991  93.4450456
  41.5377379  70.5580196  93.5050353  42.0345620  71.4334768  93.0868953
  42.1544886  70.1350232  94.2979992  41.3418909  69.5520154  92.4458670
  40.7707772  69.9439173  91.7107876  42.2387723  69.2822335  92.0678175
  40.8819202  68.7405408  92.8332105  38.6355319  74.2322214  97.5170500
  39.0497174  75.3957872  97.4473726  37.3588786  73.9195335  97.7845789
  37.0967478  72.9444220  97.7612486  36.3139851  74.9102393  98.0008694
  36.4289782  75.7356394  97.2983094  34.9506014  74.2776053  97.7871121
  34.8601302  73.4385233  98.4769350  34.1944700  75.0258498  98.0248001
  34.7494039  73.7924950  96.3802299  34.9174816  74.6266135  95.6989833
  35.4767912  73.0063774  96.1776736  33.0943893  73.1454795  96.1240042
  32.1800231  74.7193465  95.9334623  32.5799523  75.2718569  95.0832342
  31.1239853  74.5085059  95.7648473  32.2907781  75.3163772  96.8386634
  36.3979401  75.5895354  99.3616201  35.9434911  76.7302465  99.4959861
  36.9550198  74.8975540 100.3778823  37.2037925  73.9272626 100.2484762
  37.1067783  75.4815994 101.7135138  36.3185304  76.2170227 101.8745012
  37.0154828  74.4211859 102.8078549  37.0477071  74.9354875 103.7683520
  36.0554411  73.9167597 102.6984284  38.0616913  73.4642742 102.7487052
  37.9522593  72.8262898 103.4576484  38.4013640  76.2887329 101.8222533
  38.4779614  77.1662825 102.6804541  39.3954032  76.0170147 100.9220566
  39.2534535  75.2154120 100.3242416  40.6941248  76.7016221 100.8722772
  40.9284558  77.1364321 101.8439399  41.8411029  75.7346202 100.4717807
  41.7014391  75.4686941  99.4239841  43.2158300  76.3421801 100.6592013
  43.3564137  76.6079547 101.7069130  43.9763767  75.6197523 100.3629485
  43.3054196  77.2366842 100.0428112  41.7691551  74.5420936 101.2411406
  42.4823050  73.9526206 100.9851344  40.6600951  77.9682604  99.9899029
  40.7596809  77.8535685  98.7575302  40.5776389  79.1866416 100.5972655
  40.2106230  79.5614355 101.9456600  41.1110587  79.5484890 102.5597839
  39.5029723  78.8235996 102.3237180  39.6018332  80.9411119 101.8368070
  39.6952311  81.4813556 102.7788859  38.5502394  80.8792242 101.5567681
  40.4258828  81.6048267 100.7265089  41.3790386  81.9843435 101.0946936
  39.8991225  82.3990073 100.1974527  40.6638406  80.4288011  99.7928285
  39.8594815  80.4333899  99.0572446  42.0089645  80.5040597  99.0752807
  42.9927993  79.9667142  99.5988262  42.0534539  81.1221708  97.8621462
  41.1805354  81.4088851  97.4427329  43.2815164  81.1908168  97.0413178
  43.7862222  80.2296559  96.9436397  43.1139323  81.8119454  95.6215781
  43.9231018  81.4258162  95.0017004  41.7745274  81.4946421  94.9642708
  40.9648305  81.8808966  95.5833826  41.7327490  81.9609506  93.9799378
  41.6675233  80.4150144  94.8591239  43.4024812  83.2895832  95.6011778
  44.4285717  83.4644352  95.9247010  43.2710384  83.6720340  94.5889754
  42.7170189  83.8034989  96.2750716  44.4388314  81.8241912  97.8552243
  45.5737839  81.3608032  97.7709008  44.1052298  82.8109714  98.7038607
  43.1291869  83.0692105  98.6764379  44.9961719  83.5540576  99.6012826
  45.8221405  83.9879672  99.0377246  44.2109029  84.6959670 100.2845545
  43.3175969  84.2494801 100.7213073  44.8466083  85.0869300 101.0789893
  43.8055795  85.8353769  99.3494936  43.3884241  86.6008798 100.0037776
  44.7595164  86.1798755  98.9502138  42.8404677  85.5688948  98.1999995
  41.9806201  84.6614201  98.3163210  42.9365455  86.2956799  97.1837498
  45.6238949  82.6407014 100.6611761  46.7536918  82.8921187 101.0932980
  44.8893300  81.5789610 101.0671773  43.9262011  81.5262203 100.7676772
  45.3635929  80.6060621 102.0399005  46.0435272  81.0677792 102.7558655
  44.2082500  79.9098149 102.8264573  43.5167325  79.4747631 102.1049085
  44.7332320  78.8106344 103.7575927  45.4245072  79.2450319 104.4797689
  43.8976365  78.3515884 104.2859461  45.2513033  78.0527468 103.1699617
  43.3981558  80.9302807 103.6248343  42.9654804  81.6638577 102.9445704
  42.5998068  80.4198745 104.1635587  44.0505061  81.4360645 104.3366789
  46.3138622  79.6358861 101.3465515  47.4064199  79.3785660 101.8616641
  45.9157604  79.1196179 100.1743497  44.9809968  79.3155531  99.8458290
  46.7543313  78.2231096  99.3826516  47.0324747  77.3492860  99.9718610
  45.9761863  77.7500247  98.1355069  45.2351758  77.0550164  98.5304322
  45.4717270  78.6295373  97.7354090  46.7830522  77.0580521  97.0051483
  47.6906801  77.6357670  96.8303401  47.1487708  75.6498342  97.3611628
  46.2415815  75.0713437  97.5356770  47.7126106  75.2023298  96.5426732
  47.7586345  75.6496019  98.2645822  46.0116407  77.0379185  95.7263384
  45.7894501  78.0599110  95.4193168  46.6022322  76.5469897  94.9528451
  45.0794770  76.4921415  95.8722744  48.1060739  78.8873302  98.9671318
  49.1586407  78.2427396  99.0703400  48.0613111  80.1725575  98.5238090
  47.1453401  80.5951504  98.4736907  49.2076304  80.9274927  97.9943500
  49.9845482  80.2362924  97.6676391  48.7826134  81.7850448  96.8005975
  48.0784245  82.5549338  97.1160149  49.6517853  82.2549402  96.3403383
  47.9583484  80.8606158  95.4862033  47.7620744  81.9036595  94.6846831
  49.9625434  81.7672822  99.0367875  50.8377902  82.5610133  98.6480963
  49.6626464  81.5780672 100.3376951  48.9236968  80.9282185 100.5651803
  50.2948533  82.3250715 101.4332374  50.1878281  83.3948873 101.2539644
  49.6374638  81.9832924 102.7905392  48.5588007  81.9475467 102.6378716
  49.9937643  80.9988815 103.0939948  49.9636655  83.0018075 103.8826639
  50.9411089  83.4308526 103.6621518  49.2072710  83.7859177 103.8488911
  49.9853479  82.3780692 105.2699553  48.9947335  81.9750220 105.4805142
  50.7143748  81.5677489 105.2705242  50.3536668  83.3863619 106.3306054
  51.3085601  83.8356983 106.0578854  49.5829858  84.1568825 106.3517748
  50.4663722  82.7612778 107.6754940  51.1807505  82.0475612 107.6562060
  50.7133688  83.4665957 108.3549197  49.5815281  82.3452251 107.9285752
  51.7953718  82.0801079 101.4921349  52.2299327  80.9303471 101.4372898
  52.5564351  83.1688000 101.5882397  52.0962105  84.0672845 101.6201502
  54.0157327  83.1355020 101.6498747  54.3492944  83.9986673 102.2258795
  54.3113681  82.2205310 102.1632236  54.6744574  83.1696413 100.2822804
  55.9033006  83.2666202 100.1770871  53.8540531  83.0942060  99.2197051
  52.8701079  82.9412828  99.3887189  54.3250095  83.1029592  97.8405530
  55.4111170  83.0127791  97.8221898  53.7166549  81.9195350  97.0479492
  52.6347501  81.8234877  97.1393616  53.9838101  82.0271136  95.9966857
  54.3075920  80.6091351  97.5121036  55.5656195  80.2084403  97.0867007
  56.1127570  80.8276440  96.3758370  56.1333882  79.0204552  97.5621607
  57.1134394  78.7093642  97.2004663  55.4581139  78.2428061  98.4856624
  55.9114596  77.3298197  98.8717107  54.2127657  78.6250078  98.9154517
  53.6719533  78.0081980  99.6332036  53.6356193  79.8075408  98.4324862
  52.6471621  80.1117263  98.7767587  54.0537050  84.4423485  97.1840745
  53.2385164  85.1905074  97.7245620  54.7128972  84.7975406  96.0456742
  55.8184691  84.1948239  95.3487543  55.4261318  83.4366654  94.6709878
  56.4718106  83.7225257  96.0823607  56.4981139  85.3307953  94.6183667
  57.0395942  84.9622469  93.7471203  57.1877028  85.8574184  95.2780913
  55.3309293  86.2378947  94.2098686  54.8174417  85.9003823  93.3095826
  55.6272805  87.2799023  94.0894701  54.4120528  86.0955811  95.4131054
  54.6746807  86.8871520  96.1149176  52.9332096  86.2181596  95.0368389
  52.2928619  85.2288822  94.6778530  52.3859375  87.4338625  95.1798137
  52.9881710  88.1533905  95.5535699  50.9895002  87.7690799  94.9133196
  50.3939609  87.2768242  95.6821606  50.7905526  89.2687635  95.0319413
  51.3735954  89.7751217  94.2626803  49.7348044  89.5070922  94.9027302
  51.1201506  89.6028362  96.0157399  50.4883090  87.2823730  93.5611936
  49.3022916  86.9707023  93.4410730  51.3915922  87.1894349  92.5643169
  52.3242686  87.4924957  92.8059120  51.1240679  86.7852588  91.1603310
  50.4153718  87.4793965  90.7086430  52.4065598  86.7954056  90.3383720
  53.1755671  86.2951094  90.9269557  52.2164328  86.2244344  89.4295576
  52.8797383  88.1913902  89.9693966  53.5176445  88.0533018  89.0964086
  51.9561040  88.6862509  89.6692103  53.6034108  89.0488542  90.9947271
  53.8051261  88.6010189  92.1484114  53.9998633  90.1753357  90.6209373
  50.4303378  85.4313419  91.0344597  49.5787175  85.2656765  90.1570386
  50.7952239  84.4740573  91.9145281  51.5982697  84.6611335  92.4978112
  50.1915871  83.1508425  91.9750182  50.1512672  82.7191427  90.9749638
  51.0098469  82.2249709  92.8738867  51.2300590  82.6589733  93.8492060
  50.4860484  81.2785080  93.0078390  52.3382481  81.8969266  92.2374330
  52.4228138  80.9550834  91.2024534  51.5203021  80.4288979  90.8914848
  53.6469801  80.6852446  90.5682847  53.6960346  79.9602250  89.7558556
  54.7910018  81.3423433  90.9775971  55.7464146  81.1328007  90.4965792
  54.7203711  82.2772706  92.0108483  55.6249047  82.7952704  92.3295886
  53.4979930  82.5521116  92.6376835  53.4515885  83.2834516  93.4445839
  48.7160442  83.2102839  92.3790157  47.8894425  82.4992563  91.7864159
  48.3667563  84.1019373  93.3418003  49.0817458  84.6134445  93.8390423
  46.9791122  84.3020089  93.7303400  46.4878210  83.3346777  93.8352330
  46.8886706  85.0379905  95.0545037  47.3683951  86.0124305  94.9626834
  45.8414186  85.1731917  95.3248442  47.3911497  84.4576958  95.8283720
  46.2434065  85.0626887  92.6288821  45.1255991  84.6892961  92.2914350
  46.8900377  86.0762174  92.0186940  47.7894711  86.3532040  92.3852965
  46.3223831  86.8511602  90.8964904  45.3948757  87.3224561  91.2216202
  47.2904326  87.9514539  90.4083152  48.2509661  87.4736079  90.2156033
  46.8872442  88.3449201  89.4751895  47.4798599  89.0852888  91.3937059
  46.5355420  89.6219764  91.4849790  47.7496455  88.6588092  92.3598493
  48.7769096  90.2438961  90.8692622  48.9783629  91.2432936  92.4137334
  49.2779762  90.5901054  93.2332918  49.7433615  92.0039143  92.2577396
  48.0325720  91.7253385  92.6611471  45.9330943  85.9255888  89.7274730
  44.8498331  86.0833138  89.1506482  46.8150458  84.9397375  89.4219899
  47.6961113  84.9755924  89.9144707  46.6417218  83.9258197  88.3874608
  46.4394095  84.4110426  87.4326165  47.9145367  83.0561246  88.2406994
  48.7540234  83.7019307  87.9832195  48.0977924  82.5918914  89.2097220
  47.7646077  81.9834377  87.1896518  47.1366863  80.7723853  87.4861310
  46.8223776  80.5819008  88.5123011  46.9102980  79.8193736  86.5027058
  46.3748728  78.9000421  86.7398793  47.3832206  80.0323429  85.2231023
  47.1774091  79.0764217  84.2725728  46.7002345  78.3128855  84.6056142
  48.0415975  81.2117317  84.9089064  48.4137971  81.3833113  83.8988924
  48.2261958  82.1804729  85.8934159  48.7398145  83.1112403  85.6526505
  45.3930366  83.0780035  88.6495636  44.5036659  83.0678847  87.7977189
  45.3058666  82.4084740  89.8342634  46.1212192  82.4062540  90.4303294
  44.1526334  81.5703763  90.2218592  43.9334023  80.8700540  89.4158905
  44.4300198  80.7751163  91.4983274  44.9464639  81.5256356  92.0967466
  43.5175795  80.4683569  92.0096505  45.3422338  79.5580077  91.3074315
  46.1384246  79.8275357  90.6135037  45.9491093  79.1090388  92.6229550
  45.1534875  78.8388859  93.3172907  46.5902249  78.2443394  92.4515885
  46.5403674  79.9207815  93.0467335  44.6239560  78.4323558  90.5522475
  44.3170662  78.7913717  89.5698902  45.2991731  77.5848670  90.4341551
  43.7445398  78.1198752  91.1153479  42.8287856  82.3457744  90.3258104
  41.8058129  81.8530499  89.8465033  42.8479276  83.5563956  90.8906102
  43.6914183  83.8648426  91.3526527  41.6674107  84.4107999  90.9632685
  40.8367190  83.8520212  91.3943332  41.9372340  85.6387971  91.8376324
  42.9542471  85.9525249  91.6023488  41.2407082  86.4315987  91.5648366
  41.8379188  85.4000520  93.3252074  41.0567849  84.5676199  93.8169469
  42.6153759  86.1783214  94.0677315  42.6083210  86.0821431  95.0731169
  43.2104933  86.8631748  93.6239840  41.1367468  84.8337575  89.5776792
  39.9183483  84.9022426  89.3838832  42.0487391  85.1180789  88.6203049
  43.0227600  85.1149509  88.8874618  41.7068765  85.4997122  87.2513393
  41.0476456  86.3676592  87.2648229  42.9842832  85.8601724  86.4498664
  43.3094634  86.8127907  86.8680474  43.7659286  85.1144835  86.5950512
  42.7139182  86.0251979  84.9711776  42.3095666  87.2489952  84.4485871
  42.2413916  88.1079536  85.1161514  41.9933199  87.3895251  83.0943163
  41.6884978  88.3588118  82.6997678  42.0381923  86.2869364  82.2610056
  41.7178804  86.4148449  80.9377699  41.4770690  87.3119184  80.6951415
  42.4364782  85.0621924  82.7581538  42.4857375  84.1936225  82.1014496
  42.7762800  84.9382416  84.1046593  43.0991162  83.9746423  84.4988081
  40.9079707  84.3756465  86.5409840  39.8828267  84.6564350  85.9032760
  41.4261325  83.1141285  86.6480623  42.2871515  83.0807311  87.1749686
  40.9384597  81.8745463  86.0331215  40.7682225  82.0307810  84.9678942
  41.9683019  80.7562694  86.2047692  42.1783960  80.5903481  87.2613816
  41.6046630  79.8311543  85.7575233  43.5654744  81.0980892  85.4228740
  44.1427217  79.9543591  85.7800371  39.6032778  81.4634236  86.5657277
  38.7459849  80.9551017  85.8310524  39.4411866  81.6523881  87.8706100
  40.2269702  81.9707455  88.4195107  38.2207216  81.2954771  88.5621190
  37.8067619  80.3779844  88.1438564  38.5135082  81.0677021  90.0445183
  39.2167293  81.8312635  90.3770140  37.5801123  81.1682288  90.5983832
  39.1030989  79.6958771  90.2946326  38.3205288  78.9676834  90.0815159
  39.9220712  79.5658747  89.5871824  39.6157624  79.4872871  91.7031461
  39.8550305  78.4306490  91.8230025  40.5220694  80.0805551  91.8245559
  38.6587937  79.8731992  92.7444086  37.8639949  80.4241286  92.4530824
  38.7861592  79.5748125  94.0365822  39.8093257  78.8266150  94.4561687
  40.4884436  78.4862886  93.7905285  39.8994964  78.6043914  95.4372832
  37.8831584  79.9878638  94.9131573  37.0924373  80.5328076  94.6002733
  37.9894819  79.7559798  95.8904105  37.1396449  82.3327931  88.3059826
  35.9504284  82.0350940  88.4455147  37.5771489  83.5157517  87.8751830
  38.5803699  83.6139267  87.8118693  36.7449746  84.6540658  87.4963641
  35.8688418  84.6584332  88.1448017  37.3243094  85.5621725  87.6631358
  36.2883603  84.6183284  86.0495416  35.4197054  85.4062122  85.6638843
  36.8500353  83.7065627  85.2306432  37.5988947  83.1152033  85.5617065
  36.4504498  83.6012005  83.8192342  36.3533282  84.6093218  83.4162975
  37.4572471  82.8152148  82.9470402  37.5120937  81.8534227  83.4569885
  36.9769512  82.6848355  81.9772892  38.8604976  83.3629989  82.7473339
  39.2306800  83.7541054  83.6950161  39.7775683  82.2716095  82.2626572
  39.4082649  81.8802985  81.3147176  40.7806103  82.6746260  82.1227102
  39.8086659  81.4686924  82.9991744  38.8850456  84.5017651  81.7877949
  38.2560863  85.3084486  82.1643202  39.9079446  84.8612902  81.6758995
  38.5090968  84.1701736  80.8199062  35.0689264  82.9720340  83.6362816
  34.6930086  82.0347324  84.3646123  34.3328867  83.4669720  82.6095650
  34.6753607  84.2675531  82.0978220  33.0516116  82.8991680  82.2238739
  32.4880148  82.6413107  83.1205162  32.2239091  83.8877841  81.3918182
  32.8520134  84.1941355  80.5553177  31.3630326  83.3350156  81.0157348
  31.7433335  85.1256684  82.1474900  31.1246325  84.7861159  82.9781608
  32.6235046  85.6377490  82.5363012  30.9361689  86.0912697  81.2705176
  29.9420228  85.6708447  81.1188098  30.8513221  87.0437905  81.7935899
  31.5532828  86.3286280  79.9559848  31.2669457  85.7021666  79.2172992
  32.4403887  87.2857008  79.6717824  32.8437240  88.1323792  80.6194164
  32.4762384  88.0490332  81.5564905  33.5149045  88.8532440  80.3958762
  32.9312384  87.4035407  78.4406145  32.6311021  86.7655956  77.7173965
  33.6016935  88.1303874  78.2349873  33.3527070  81.6352388  81.4121261
  34.4196216  81.5112957  80.8107649  32.4009253  80.7075375  81.4004632
  31.6175029  80.8828359  82.0133410  32.4486079  79.4382427  80.6858038
  33.1302739  78.7520232  81.1883310  31.0411846  78.7982713  80.6491162
  30.7343741  78.5495915  81.6650517  30.3120913  79.4764087  80.2056608
  30.9790537  77.5164625  79.8530540  31.6128867  76.3621211  80.3088004
  32.1368797  76.3862417  81.2642842  31.5829591  75.1887957  79.5610424
  32.0795857  74.2922180  79.9320022  30.9296599  75.1612806  78.3597244
  30.9239589  74.2475056  77.7655167  30.2779455  76.2885984  77.8991846
  29.7365548  76.2528433  76.9538180  30.3109428  77.4672130  78.6377992
  29.8099581  78.3596457  78.2627283  33.0494596  79.5321942  79.2828514
  34.0280595  78.8496093  79.0204337  32.4695251  80.3529581  78.3995844
  31.6434666  80.8367667  78.7215408  32.8863327  80.5407682  77.0071840
  33.2897366  79.6160754  76.5945003  31.6582626  80.9475463  76.1877546
  31.9095315  80.7695188  75.1421593  30.8505706  80.2789980  76.4857091
  31.2086024  82.4014605  76.3641550  32.0752093  82.9533636  76.0001547
  30.3764370  82.5358150  75.6731060  30.8152081  82.9243109  77.7400170
  30.1932989  82.1719979  78.5312719  31.0964176  84.1170997  78.0035203
  34.0423976  81.5732481  76.7955472  34.5136257  81.7540649  75.6615951
  34.4722963  82.2493472  77.8808006  33.9891416  82.0676083  78.7489204
  35.4878678  83.2984607  77.8602003  35.3353931  83.9482647  76.9984547
  35.3961620  84.1404206  79.1273465  34.3407258  84.3747429  79.2660789
  35.7373090  83.5052928  79.9448620  36.2034119  85.4281498  79.1158918
  37.2369968  85.1503079  78.9094770  35.8161997  86.0247122  78.2898899
  36.1442908  86.2397660  80.3968765  35.3793264  85.8754538  81.3224505
  36.8798179  87.2503445  80.4741088  36.9233411  82.8041378  77.6351065
  37.4073176  81.8572061  78.2651923  37.6105903  83.5095859  76.7412292
  37.1178145  84.2725119  76.2993976  38.9907920  83.2735387  76.3654713
  39.1986101  82.2100043  76.2479746  39.2707963  83.9720750  75.0445381
  39.0759629  85.0394291  75.1489189  40.3134252  83.8191292  74.7659115
  38.6240431  83.5592156  74.2703568  39.9309751  83.8239410  77.4230095
  39.8313576  85.0129059  77.7754012  40.9152382  83.0297867  77.8823516
  40.9988300  81.5674356  77.9426973  41.5962445  81.2206672  77.0995200
  39.9906988  81.1603615  77.8648434  41.6424947  81.2610265  79.2748426
  42.1456668  80.2944667  79.2487823  40.8999286  81.2620993  80.0727748
  42.6436709  82.4090344  79.4570024  43.5506162  82.2214624  78.8822276
  42.9092440  82.6410678  80.4883758  41.8749979  83.5699201  78.8454795
  41.3473414  84.0713293  79.6568152  42.7769701  84.5817124  78.1191020
  42.9586914  84.4875424  76.9177555  43.2488417  85.6140073  78.8181575
  42.9728156  85.6861542  79.7870247  44.1782730  86.6148387  78.2835399
  44.0130914  86.7300936  77.2123114  43.9699699  87.9844940  78.9650355
  42.8978639  88.1388351  78.8431055  44.2027354  87.8759230  80.0243431
  44.7246713  89.1858643  78.3987378  45.6964111  88.9832248  77.6429011
  44.3848983  90.3364435  78.7794289  45.5300409  86.0369951  78.6677758
  46.0175077  86.2804253  79.7903456  46.0912751  85.2100483  77.7570376
  45.5656225  84.9972424  76.9212730  47.3701243  84.5271175  77.9657697
  47.3402553  83.9841540  78.9104378  47.6617318  83.5300311  76.8360065
  47.8593153  84.1434516  75.9569301  48.5584980  82.9669191  77.0944931
  46.5306795  82.5679233  76.5361210  46.4305303  81.3460404  77.1996277
  47.1751918  81.0897560  77.9532172  45.3946774  80.4554965  76.9105439
  45.3271285  79.5023607  77.4350160  44.4584346  80.7791786  75.9292813
  43.4152775  79.9535161  75.6127189  43.4046371  79.1464305  76.1324296
  44.5476496  81.9772685  75.2531517  43.8150224  82.2333385  74.4877851
  45.5801537  82.8620422  75.5522101  45.6605445  83.8072678  75.0153805
  48.5416538  85.4903336  78.1403302  49.4720397  85.1849634  78.9004337
  48.4975477  86.6413587  77.4391328  47.7445018  86.7757069  76.7796089
  49.5350284  87.6581672  77.5178822  50.4989173  87.1867848  77.3260072
  49.3333305  88.8047468  76.4977317  49.1943789  88.3513673  75.5162845
  48.4279660  89.3416551  76.7808302  50.5337681  89.8011849  76.4449629
  50.3886354  90.4672529  75.5944391  50.5356023  90.3840186  77.3660512
  52.1628001  88.9344062  76.2691004  52.0203400  88.5004752  74.4615980
  51.9188997  89.4136099  73.8750881  52.9142809  87.9632322  74.1448325
  51.1444270  87.8705161  74.3065843  49.6273499  88.1987665  78.9167014
  50.7255517  88.2899814  79.4452490  48.4619552  88.5232047  79.5215816
  47.6451616  88.5064423  78.9277242  48.3092724  88.9870833  80.8900068
  48.8961195  89.8934628  81.0389559  46.8203422  89.3037456  81.1976963
  46.5634008  90.2103912  80.6499060  46.2299178  88.4702861  80.8171122
  46.5239196  89.5015163  82.6646882  46.8171041  90.7037514  83.3034093
  47.2390845  91.5197410  82.7167297  46.5809357  90.8748540  84.6657244
  46.8673987  91.8059908  85.1546263  46.0725896  89.8229167  85.4180217
  45.7813727  89.9992395  86.7576563  45.9679449  90.8882478  87.0682278
  45.7639756  88.6209891  84.7971565  45.3801307  87.7844164  85.3810312
  45.9463835  88.4855217  83.4217668  45.6345541  87.5705200  82.9181455
  48.9071902  87.9804188  81.8642603  49.7422767  88.3595098  82.6743229
  48.5352254  86.7032854  81.7584988  47.8099181  86.4669221  81.0965614
  49.0336778  85.6517008  82.6469045  48.9263026  85.9657778  83.6851364
  48.2395258  84.3451154  82.4425147  48.4148504  84.1556758  81.3835184
  48.6734874  83.5376498  83.0322407  46.7153142  84.4166270  82.7084264
  46.2901965  85.2212995  82.1085282  46.0488031  83.1139607  82.3458390
  46.4731027  82.3088301  82.9457002  44.9787506  83.1862191  82.5404338
  46.2119591  82.9036165  81.2888453  46.3981221  84.8649622  84.1954942
  46.8236356  85.8520076  84.3765435  45.3186344  84.9028513  84.3416864
  46.8336873  84.1487385  84.8922047  50.5391966  85.4132672  82.5307982
  51.1778047  85.2077574  83.5526795  51.1090151  85.4709997  81.2973867
  50.4963457  85.5734394  80.5009938  52.5470892  85.3186659  81.0532488
  52.9071778  84.4326079  81.5760649  52.8540825  85.1667766  79.5706313
  52.0379742  85.6189530  79.0070684  53.7804509  85.7009592  79.3594668
  53.0060856  83.7012795  79.1600704  53.6186290  83.2081006  79.9148327
  52.0115795  83.2551963  79.1517400  53.6537438  83.5279223  77.7854231
  54.6882536  83.8700699  77.8141186  53.6265052  82.4792788  77.4892739
  52.9334761  84.3084023  76.7980512  53.2061677  85.2726484  76.6716860
  51.9240524  83.8387586  76.0827977  51.5765648  82.5587821  76.1712880
  52.0859180  81.9418556  76.7877790  50.8047816  82.2090361  75.6216263
  51.2731951  84.6373452  75.2446985  51.5509843  85.6042299  75.1548805
  50.5034213  84.2741145  74.7009977  53.3113704  86.4893339  81.6381794
  54.3282361  86.2782396  82.3098164  52.7871011  87.7226839  81.4129009
  51.9857884  87.7210970  80.7980880  53.2705485  89.0043932  81.9160497
  54.2828721  89.1849666  81.5545341  52.3666163  90.1462571  81.4333838
  51.3436178  89.7714056  81.4659361  52.4781760  90.9591151  82.1509605
  52.6725635  90.6568843  80.0413302  52.6127148  89.8020880  79.3676520
  51.9457922  91.4101348  79.7371605  54.0515917  91.2515518  79.9424219
  54.2454501  92.4268496  80.2711466  55.0178416  90.4665774  79.4433845
  55.9592915  90.8221861  79.3578506  54.7996232  89.5234211  79.1553946
  53.3547554  89.0616207  83.4247177  54.2955631  89.6785919  83.9362842
  52.3594833  88.4749078  84.1563424  51.5975716  88.0289042  83.6657606
  52.3632638  88.4304089  85.6272831  52.2446223  89.4437870  86.0108039
  51.2236548  87.5518855  86.1921671  51.2835248  86.6695421  85.5549978
  51.5295538  87.2894975  87.2049249  49.7925320  88.0659761  86.2124017
  49.4704300  88.2906910  85.1956154  48.8834652  86.9994335  86.8084792
  49.2046828  86.7745079  87.8254977  47.8564773  87.3643086  86.8246893
  48.9376554  86.0950300  86.2024939  49.6816143  89.3612636  86.9930512
  50.3148704  90.1192778  86.5320733  48.6461117  89.7015729  86.9880431
  50.0040200  89.1953237  88.0209703  53.6735133  87.8156497  86.0784852
  54.4007268  88.4295243  86.8654384  54.0030275  86.6250788  85.4979731
  53.3189598  86.2030611  84.8863754  55.2030667  85.8592214  85.8283735
  55.3918078  85.9233530  86.8999906  55.0403082  84.3959239  85.4505576
  54.8742279  84.3085460  84.3768343  55.9177185  83.8129749  85.7305962
  53.8522094  83.7433537  86.1274679  53.6501791  83.8765108  87.4985423
  54.3391855  84.4917212  88.0772358  52.5834659  83.2356817  88.1339713
  52.4520887  83.3356565  89.2113968  51.7002543  82.4797147  87.4013260
  50.8733864  81.9750327  87.9010115  51.8591361  82.3582167  86.0297281
  51.1411903  81.7828527  85.4452537  52.9426082  82.9751913  85.3957506
  53.0835461  82.8590577  84.3211580  56.4902872  86.4520414  85.2668747
  57.5217938  86.3760247  85.9349477  56.4363843  87.0698439  84.0878995
  55.5720167  87.0300075  83.5669571  57.5916304  87.6983177  83.4618131
  58.4517864  87.0299635  83.5009726  57.2756761  88.0079229  81.9864909
  57.0355626  87.0620700  81.5008913  56.3994601  88.6560933  81.9716335
  58.4124977  88.6799409  81.2470712  58.0968216  89.6846348  80.9659315
  59.2710672  88.7431640  81.9156243  58.7894733  87.9212268  80.0288153
  59.0378832  86.8944955  80.2975430  57.9578490  87.9207699  79.3241877
  59.9475070  88.5285662  79.3842204  60.4880672  89.1989854  79.9118872
  60.3331910  88.2353835  78.1542705  59.6444809  87.3757728  77.4257665
  58.8185827  86.9401098  77.8107209  59.9468369  87.1579764  76.4870199
  61.4083817  88.8166309  77.6364006  61.9315041  89.4840692  78.1850072
  61.6983870  88.5887713  76.6961476  58.0528703  88.9366012  84.2379638
  59.2587060  89.1188467  84.4438593  57.0860804  89.7703990  84.6940828
  56.1517643  89.6151452  84.3432993  57.3366277  90.9760708  85.5081557
  58.1929665  91.5299608  85.1234625  56.0918884  91.9122950  85.5560554
  55.2244787  91.3245530  85.8564885  56.3007581  93.0550946  86.5483474
  57.1677804  93.6436026  86.2482950  55.4164776  93.6922693  86.5608820
  56.4672440  92.6458815  87.5448043  55.7758955  92.4741909  84.1268138
  56.5284600  93.2327853  83.9116813  55.8873911  91.6443515  83.4289349
  54.3874778  93.0802546  83.9763843  54.2753920  93.9105134  84.6736696
  54.2572196  93.4427183  82.9567020  53.6343227  92.3220796  84.1909257
  57.8945368  90.5659179  86.8874414  58.8128430  91.2159124  87.3816832
  57.3970305  89.4519495  87.4679375  56.5909496  89.0218803  87.0373874
  57.8963524  88.8888894  88.7234577  57.9294858  89.6621308  89.4909856
  56.9625367  87.7506693  89.2072017  56.0740552  88.3273159  89.4644535
  56.7376359  87.0928750  88.3676623  57.3950402  86.9040048  90.4217967
  58.3153887  86.3832672  90.1574265  57.6266114  87.7373068  91.6529147
  56.7065119  88.2580228  91.9181894  57.9289056  87.0918530  92.4776015
  58.4124216  88.4666065  91.4561289  56.4181932  85.8079705  90.6640563
  56.3660583  85.1660794  89.7846490  56.7374415  85.2196003  91.5242902
  55.4345059  86.2342273  90.8609406  59.3523683  88.4063014  88.5794212
  60.1853400  88.7531252  89.4182302  59.6569727  87.6443458  87.4889852
  58.8829552  87.4401835  86.8731005  60.9767332  87.0943413  87.1543327
  61.3128947  86.3812662  87.9070735  60.8407769  86.3803780  85.8462986
  59.9050491  85.8286428  85.7562927  60.8627592  87.1805558  85.1064795
  61.9409231  85.4242147  85.4784562  61.9649826  84.1318470  86.0021307
  61.1985157  83.8344522  86.7178015  62.9465813  83.2302578  85.6236520
  62.9861012  82.2392552  86.0758165  63.8753304  83.5907210  84.6714377
  64.6261995  82.8682822  84.3514725  63.8587881  84.8563200  84.1239739
  64.6069546  85.1428410  83.3848848  62.8849918  85.7676114  84.5167001
  62.8567538  86.7614481  84.0699440  62.0627981  88.1935607  87.0468296
  63.1727027  88.0539398  87.5901377  61.7003582  89.3003813  86.3900346
  60.7693836  89.2796341  85.9989399  62.5008603  90.4945184  86.1970530
  63.4363293  90.2583383  85.6898885  61.6998900  91.4740611  85.3206008
  61.5322666  90.9723226  84.3675739  60.7445113  91.6293798  85.8218270
  62.3682243  92.8197057  85.0746460  62.6350321  93.2541488  86.0380637
  63.2721337  92.6544688  84.4883470  61.4516578  93.7662288  84.3315700
  62.0591479  94.4858029  83.7826913  60.8469055  93.1918860  83.6297835
  60.5573895  94.4975488  85.2327788  60.8780026  94.6577589  86.1770454
  59.3680084  94.9766825  84.8760360  58.9027098  94.7729329  83.6467141
  59.4551842  94.2518670  82.9808594  57.9990625  95.1402245  83.3847635
  58.6238446  95.6446019  85.7524656  58.9634598  95.7884660  86.6927127
  57.7223928  96.0050090  85.4739156  62.7882863  91.1156967  87.5672314
  63.9450508  91.3965739  87.8882999  61.7241466  91.3164446  88.3667450
  60.8242282  91.1630951  87.9346221  61.7583682  91.8720373  89.7306701
  62.2470796  92.8462901  89.7402511  60.3245561  92.0387626  90.2420208
  59.8667769  91.0498914  90.2679493  60.2509513  92.6664012  91.6222501
  60.7081530  93.6555568  91.5970013  59.2079691  92.7564268  91.9258663
  60.7838076  92.0385319  92.3363543  59.6379796  92.8724152  89.3123601
  58.7319511  92.9981383  89.6037472  62.6766949  91.0523004  90.6824255
  63.3938882  91.6346434  91.4898811  62.6905842  89.7253173  90.5342069
  61.9998654  89.3225606  89.9171219  63.5345489  88.8248541  91.3072236
  63.6595893  89.2092292  92.3195081  62.8862668  87.4242666  91.3873677
  62.7020683  87.1563699  90.3469824  63.5973605  86.7220009  91.8224180
  61.5592438  87.3677247  92.1759581  60.9034775  88.1555120  91.8051986
  60.8784756  86.0317719  92.0179110  61.5334915  85.2434738  92.3889085
  59.9482815  86.0279289  92.5860878  60.6607931  85.8567115  90.9643131
  61.7581967  87.6657383  93.6410791  62.1788245  88.6647981  93.7553205
  60.7989792  87.6148386  94.1562608  62.4407681  86.9332495  94.0719566
  64.9908526  88.7732124  90.8002212  65.8321931  88.1164782  91.4354435
  65.2881331  89.4915577  89.6770078  64.4640466  89.8374572  89.2065460
  66.6011911  89.6738549  89.0178338  66.4716410  90.3208743  88.1502614
  67.6575381  90.3143092  89.9619453  67.8113114  89.6030966  90.7735053
  68.5890770  90.4427895  89.4107393  67.2592648  91.6488666  90.5569509
  67.4792445  91.9159848  91.7441775  66.6306207  92.5085066  89.7520039
  66.3460405  93.4108334  90.1054444  66.4424617  92.2526293  88.7932423
  67.1336936  88.4032853  88.3545269  68.3419725  88.2174172  88.2352034
  66.2110069  87.6012603  87.8153793  65.2547129  87.9007528  87.9414957
  66.4574262  86.3506043  87.0952140  67.4038599  85.9143472  87.4146546
  65.3130875  85.3324850  87.3936856  64.3373792  85.7145069  87.0934327
  65.5453744  84.4372387  86.8169041  65.1829222  84.8997877  88.8236688
  66.2951846  84.7009114  89.6294445  65.8216246  84.3137285  90.8008344
  66.5425807  84.1265729  91.5966321  64.4955225  84.2216888  90.7860015
  63.8865531  83.9459700  91.5431245  64.0759249  84.5762808  89.5256775
  63.0146266  84.5539166  89.2781963  66.5465388  86.5456316  85.5608773
  65.8333905  87.3729672  84.9843738  67.3674849  85.7121362  84.9031783
  67.8768791  85.0414481  85.4606675  67.5613260  85.6980433  83.4490517
  67.0521458  86.5549827  83.0080420  69.0432180  85.7701535  83.0847893
  69.4212346  84.7528377  83.1861372  69.0746676  86.0661135  82.0362100
  69.9185370  86.7277062  83.9145576  69.8527785  86.3719034  84.9427507
  70.9524980  86.6667781  83.5749779  69.4826318  88.1708611  83.8752058
  69.0902506  88.7006267  82.8288199  69.5926644  88.8542941  85.0125066
  69.3152527  89.8249502  85.0436664  69.9530396  88.3989518  85.8388809
  66.9939296  84.3962379  82.8904528  67.0099364  83.3677712  83.5713068
  66.4864512  84.4298780  81.6567725  66.3943862  85.3094730  81.1689856
  65.9616553  83.2292431  81.0206191  65.5662698  82.5507489  81.7765391
  64.8223528  83.5969120  80.0423444  65.2438302  84.4480152  79.5074805
  64.6588218  82.7751250  79.3451904  63.4948572  84.0000506  80.6720148
  62.5786568  83.0310386  81.1055657  62.8388086  81.9785747  80.9926925
  61.3499844  83.3919017  81.6741807  60.6848304  82.6272106  82.0753286
  60.9835956  84.7339358  81.7332111  59.7536244  85.0836205  82.2516130
  59.2383599  84.3261068  82.5384495  61.8578232  85.7123535  81.2609328
  61.5719554  86.7637129  81.2929265  63.1077294  85.3407820  80.7437809
  63.7991428  86.1045350  80.3877908  67.1540736  82.4757234  80.3341932
  67.1301316  82.2559234  79.1258655  68.2073028  82.1108904  81.1348269
  68.1374545  82.4569766  82.0811063  69.4387294  81.3933675  80.7397780
  69.7216535  81.6874940  79.7290641  70.5969771  81.7186184  81.6861422
  71.4702083  81.1722612  81.3296872  70.7563126  82.7878933  81.5469899
  70.3845838  81.4260553  83.1635697  69.4113009  80.6969315  83.5013802
  71.2164042  81.8897678  83.9841936  69.2967988  79.8640747  80.5966551
  70.2821780  79.1892741  80.2640203  68.0864056  79.3315269  80.8386452
  67.4180203  79.9814705  81.2271471  67.7177146  77.9086969  80.7712083
  66.7156846  77.7905400  81.1836087  67.7279645  77.3484223  79.3280724
  68.6998094  77.3668621  78.8348414  67.4129838  76.3147028  79.4705892
  66.7156710  78.0688578  78.4713931  65.3464769  77.9023414  78.6877447
  65.0178913  77.1602122  79.4153264  64.4052822  78.6634394  77.9939535
  63.3410089  78.5250803  78.1844287  64.8283831  79.6100352  77.0678822
  63.9199344  80.3696909  76.3650015  63.0086764  80.1674897  76.5893295
  66.1825372  79.7882368  76.8327887  66.5201393  80.5126457  76.0916025
  67.1157157  79.0358044  77.5493537  68.1821834  79.1984660  77.3935080
  68.5168086  77.0325127  81.7489301  68.7045641  75.8332167  81.5236170
  68.9282386  77.6371134  82.8672272  68.8635730  78.6429680  82.9318356
  69.5858980  76.9225169  83.9378611  69.9388575  75.9684098  83.5464554
  70.7903101  77.7007156  84.4964545  70.4262385  78.6526080  84.8830460
  71.4975916  76.9541598  85.5905246  71.8623764  76.0022950  85.2045387
  72.3391266  77.5463768  85.9499642  70.8054359  76.7710891  86.4124165
  71.7245129  77.9113442  83.4425500  72.4817389  78.3965475  83.7783878
  68.4662496  76.6167245  84.9309972  68.0917465  77.4821911  85.7270022
  67.8537899  75.4249646  84.8010990  68.1245344  74.8125339  84.0449737
  66.7933878  74.9872628  85.6981165  66.2020567  75.8464404  86.0147243
  65.8695729  73.9895666  84.9972731  66.5142437  73.1761445  84.6643416
  65.1080740  73.5965224  85.6708722  65.1463732  74.4932084  83.7765839
  63.9466731  75.1880936  83.8948892  63.5339754  75.3730735  84.8866366
  63.2693787  75.6489111  82.7562719  62.3567623  76.2339756  82.8699884
  63.7558379  75.3632657  81.4911291  63.2140506  75.6991746  80.6069732
  64.9298355  74.6513147  81.3519160  65.3255192  74.4363346  80.3592840
  65.6187768  74.2010607  82.4993515  66.5327194  73.6168540  82.3920612
  67.4547814  74.3496763  86.9095961  68.6816416  74.3073330  86.9709722
  66.6745800  73.8786113  87.8825902  65.6716681  73.9767081  87.8144424
  67.2324743  73.2487678  89.0866588  67.9563463  73.9192882  89.5498119
  66.1296243  72.9463286  90.0994053  65.3973877  72.3688913  89.5350517
  66.5446683  72.3274253  90.8948909  65.4596745  74.1555129  90.7015072
  66.0438215  75.2576281  90.6413128  64.3822201  73.9946719  91.2789526
  67.9739090  71.9602730  88.7574283  69.0005886  71.6509578  89.3839616
  67.4273249  71.1944250  87.7952263  66.5509320  71.4858811  87.3864621
  67.9875277  69.9079392  87.3882655  68.3204913  69.3615961  88.2707301
  66.9512371  69.0624056  86.6534700  67.4154694  68.1700490  86.2336041
  66.1605540  68.7692791  87.3441198  66.2845496  69.7745467  85.5158252
  66.7628193  69.9309796  84.2498245  67.7445466  69.5060931  84.0405809
  65.8579054  70.6228001  83.4812179  66.0106278  70.9263881  82.5301081
  64.7448851  70.8887221  84.2310421  63.5556436  71.5440334  83.8896426
  63.4073783  71.8619330  82.8576271  62.6386657  71.7460308  84.8968887
  61.7057788  72.2647413  84.6760689  62.8765060  71.2971228  86.2124644
  62.1361899  71.4589250  86.9959512  64.0462206  70.6424513  86.5500842
  64.1800140  70.3142215  87.5808438  65.0054107  70.4202171  85.5441005
  69.2302023  70.0811142  86.5678465  70.1013064  69.2100402  86.6066373
  69.3248942  71.2080423  85.8439676  68.5118296  71.8069833  85.8267953
  70.4666474  71.5669360  85.0080753  70.7305468  70.7954602  84.2846935
  70.1366651  72.8617651  84.2471684  69.7471443  73.5773580  84.9712544
  71.3343784  73.4641865  83.5348509  71.7241901  72.7493002  82.8102241
  71.0305475  74.3748879  83.0187026  72.1095470  73.7015069  84.2634751
  69.0813650  72.5767641  83.3165444  68.8597490  73.3741381  82.8300453
  71.6935868  71.6469284  85.9078058  72.7376369  71.0530741  85.6080100
  71.4984681  72.2840895  87.0686776  70.5912468  72.7189390  87.1578665
  72.4738747  72.5001472  88.1262892  73.4082019  72.8753800  87.7087581
  71.9342481  73.5269252  89.1105570  70.9727504  73.1700473  89.4796905
  72.6363669  73.6022617  89.9408904  71.7565538  74.8877353  88.4762434
  72.7196276  75.1663549  88.0485042  71.0244864  74.7718471  87.6770255
  71.2088673  76.1859401  89.5967775  72.5072762  76.1180237  90.8933078
  73.4803921  76.3173380  90.4445115  72.2991468  76.8680901  91.6563171
  72.5141621  75.1282654  91.3498519  72.9193455  71.2215924  88.8367329
  74.1074508  71.0936090  89.1134642  71.9940883  70.2831594  89.1333462
  71.0214749  70.4884542  88.9545261  72.3291977  69.0095459  89.7951592
  72.9462751  69.2138896  90.6701211  71.0717906  68.2501795  90.2474634
  70.4636918  68.2099694  89.3437498  71.3689625  67.2402586  90.5300384
  70.2628404  68.8751596  91.3756626  70.1103356  69.9323721  91.1585337
  68.9285736  68.1934716  91.5090363  69.0802709  67.1362422  91.7266428
  68.3643995  68.6535609  92.3202861  68.3728444  68.2959467  90.5769611
  71.0126106  68.8260121  92.6889368  71.9504140  69.3732407  92.5932024
  70.4055096  69.2806909  93.4717503  71.2228181  67.7886481  92.9492974
  73.1969761  68.1199916  88.9114201  73.9336442  67.2774191  89.4220399
  73.1266735  68.3500048  87.5880236  72.3997225  68.9925221  87.3072868
  73.8972998  67.6733479  86.5421821  74.2215625  66.6951616  86.8972940
  73.0317959  67.4768848  85.2693324  72.6893350  68.4559720  84.9343575
  73.6563102  67.0272935  84.4973547  71.8185894  66.5742688  85.5357068
  72.2195410  65.6005079  85.8170044  71.2953832  67.0107348  86.3865034
  70.8391668  66.4054056  84.3644927  70.4928329  67.3834984  84.0305973
  71.3366764  65.8955990  83.5394588  69.6511962  65.5787750  84.8276649
  70.0478142  64.7176700  85.3655245  69.0737769  66.1998274  85.5124862
  68.7734342  65.1114016  83.7236209  69.3081887  64.5355487  83.0891678
  68.0100280  64.5718055  84.1059125  68.4054748  65.9091784  83.2253669
  75.2371816  68.4353490  86.2791000  76.0358967  68.0307071  85.4289211
  75.4753356  69.5177366  87.0537850  74.7275870  69.7276911  87.6994555
  76.6729439  70.3620953  87.0793160  77.3968208  69.9859560  86.3563909
  76.3342860  71.8261720  86.7225933  75.5174012  72.1235585  87.3801341
  77.2213424  72.4146141  86.9570434  75.9301121  72.0703858  85.2628358
  76.8365464  71.9652432  84.6666624  75.2064298  71.3139167  84.9592892
  75.3323809  73.4491691  85.0019831  75.1476469  74.2777288  85.9077221
  74.9802924  73.7189098  83.7489245  74.5795398  74.6179517  83.5226006
  75.1151367  73.0235869  83.0288937  77.1798134  70.3011598  88.5231785
  76.5281867  70.2103482  89.2756803  78.1596364  70.3519545  88.7167058
  74.7213771  53.3926525  62.5940704  75.0251380  54.7750644  63.1589100
  76.3156062  55.3158875  62.5527819  77.4588448  54.3615267  62.6732558
  77.1330450  53.0462785  62.9278803  75.9166097  52.4516244  62.6915908
  71.3659597  52.2656962  63.6524304  72.0988427  51.8462093  64.7457964
  73.5474163  52.1585605  64.5297775  73.5368320  52.8191111  63.2252551
  72.2909044  52.8637854  62.6727863  69.3672384  51.4982880  64.6488296
  70.0971800  51.0735419  65.7586179  71.4794485  51.2346745  65.8346839
  69.9904842  52.1031584  63.5754260  72.0252386  53.3219687  61.5649741
  72.1942732  50.8178301  66.9223127  75.8317302  51.2526891  62.5445853
  78.6205651  54.7011776  62.5595886  76.1675455  55.5189029  61.6159533
  76.5489457  56.1494471  62.9906176  74.2912452  55.3789943  62.9671318
  75.1080854  54.7273156  64.1239969  71.7914492  50.4430779  67.5832617
  73.0466798  50.9308046  66.9454148  73.9002726  52.7365592  65.2244292
  74.0923833  51.3565741  64.5243030  77.7490366  52.5506497  63.2666419
  69.4886993  52.4013257  62.8010604  69.6296423  50.6537442  66.4981038
  68.4063683  51.3672600  64.6306005  74.5339924  53.5048403  61.6492435
  45.6363681  54.3095027  94.3881285  61.9713840  73.3653671  65.1607175
  32.3137146  62.7261449  79.1099924  78.1934047  73.2148754  67.9299359
  92.9453805  60.5661694  24.4993238  76.4945899  46.8151879  40.0330395
  77.0991040  47.3513674  40.5461732  75.6727269  47.3058108  40.0409309
  86.2303668  50.9434276  42.7471546  86.8348809  51.4796071  43.2602883
  85.4085038  51.4340505  42.7550460  70.8670752  56.1712080  32.6706976
  71.4715892  56.7073875  33.1838313  70.0452122  56.6618309  32.6785890
  85.5357628  59.0409011  23.9790608  86.1402768  59.5770806  24.4921945
  84.7138998  59.5315240  23.9869522  88.1540293  51.9960196  22.3238309
  88.7585433  52.5321990  22.8369646  87.3321663  52.4866424  22.3317223
  54.0872366  47.1053363  61.4528857  54.6917506  47.6415157  61.9660194
  53.2653736  47.5959591  61.4607771  61.4758944  57.9138629  61.5541707
  62.0804084  58.4500424  62.0673045  60.6540314  58.4044858  61.5620621
  55.6863328  43.7026895  73.4103028  56.2908469  44.2388690  73.9234365
  54.8644698  44.1933124  73.4181942  62.9395878  60.7328053  68.2203127
  63.5441019  61.2689848  68.7334464  62.1177248  61.2234282  68.2282041
  68.0958572  59.2722174  71.9674224  68.7003712  59.8083968  72.4805561
  67.2739942  59.7628402  71.9753138  50.9353894  61.5555791  74.0595787
  51.5399034  62.0917586  74.5727124  50.1135264  62.0462020  74.0674701
  38.6435013  58.0021684  67.3634006  39.2480153  58.5383479  67.8765344
  37.8216383  58.4927913  67.3712920  57.0529916  75.1287269  65.0243438
  57.6575057  75.6649063  65.5374775  56.2311286  75.6193497  65.0322352
  64.0687917  62.4554254  70.1601902  64.6733057  62.9916048  70.6733239
  63.2469287  62.9460482  70.1680816  56.0725054  60.6863830  91.5301164
  56.6770194  61.2225625  92.0432501  55.2506423  61.1770059  91.5380078
  60.0590828  59.7409590  89.0974163  60.6635969  60.2771385  89.6105501
  59.2372198  60.2315819  89.1053077  59.8958033  64.1273623  94.9679382
  60.5003174  64.6635418  95.4810719  59.0739403  64.6179852  94.9758296
  57.9829320  71.9040542  96.3966811  58.5874460  72.4402337  96.9098148
  57.1610690  72.3946771  96.4045725  65.7962396  72.5165761  93.8978738
  66.4007536  73.0527555  94.4110075  64.9743766  73.0071989  93.9057652
  63.5538464  79.7880087  95.4518421  64.1583604  80.3241881  95.9649758
  62.7319834  80.2786315  95.4597335  59.6623299  73.8944229  95.8621934
  60.2668440  74.4306023  96.3753272  58.8404669  74.3850457  95.8700848
  59.0759075  77.6942245  94.1700464  59.6804216  78.2304039  94.6831801
  58.2540445  78.1848473  94.1779378  64.7967216  81.2662495  92.5400017
  65.4012356  81.8024290  93.0531355  63.9748586  81.7568724  92.5478931
  66.3397741  77.5849338  87.7992688  66.9442881  78.1211132  88.3124025
  65.5179111  78.0755566  87.8071602  57.8968915  83.5351619  83.4622285
  58.5014055  84.0713414  83.9753622  57.0750285  84.0257848  83.4701199
  61.3504576  78.8052340  79.7079392  61.9549717  79.3414134  80.2210729
  60.5285946  79.2958568  79.7158306  56.7082389  81.2179797  76.3040620
  57.3127530  81.7541592  76.8171957  55.8863759  81.7086026  76.3119534
  55.6879202  83.9372453  81.8800595  56.2924342  84.4734247  82.3931932
  54.8660572  84.4278681  81.8879509  57.1309953  85.9907458  77.9895009
  57.7355094  86.5269253  78.5026347  56.3091323  86.4813687  77.9973923
  60.7483200  80.8940785  78.1973411  61.3528341  81.4302580  78.7104748
  59.9264570  81.3847014  78.2052325  58.6074950  78.4328173  73.7496865
  59.2120090  78.9689968  74.2628202  57.7856320  78.9234402  73.7575779
  47.3656985  78.5360119  66.1852737  47.9702125  79.0721913  66.6984074
  46.5438355  79.0266347  66.1931651  66.2687216  73.5612930  73.9873408
  66.8732356  74.0974725  74.5004745  65.4468586  74.0519159  73.9952322
  64.3118844  65.5567637  68.1572143  64.9163985  66.0929432  68.6703480
  63.4900214  66.0473866  68.1651057  41.8273390  80.3696512  73.1331416
  42.4318531  80.9058306  73.6462753  41.0054760  80.8602740  73.1410330
  29.4828183  80.8879948  71.4407707  30.0873324  81.4241742  71.9539044
  28.6609553  81.3786176  71.4486621  36.2709169  78.4611780  76.9332702
  36.8754310  78.9973575  77.4464039  35.4490539  78.9518009  76.9411616
  22.6787364  70.4121460  82.5943131  23.2832505  70.9483255  83.1074468
  21.8568734  70.9027689  82.6022045  36.8832043  79.6252567  79.2860071
  37.4877184  80.1614361  79.7991408  36.0613413  80.1158795  79.2938985
  41.6813921  76.8288947  95.8118272  42.2859062  77.3650741  96.3249609
  40.8595291  77.3195175  95.8197186  53.5556429  90.8429929  88.0645062
  54.1601569  91.3791724  88.5776399  52.7337799  91.3336158  88.0723976
  56.3396154  92.0097803  90.7641474  56.9441294  92.5459598  91.2772811
  55.5177524  92.5004032  90.7720388  44.3075240  88.3987153  93.4047143
  44.9120381  88.9348947  93.9178481  43.4856610  88.8893381  93.4126057
  38.4368256  86.9842113  85.5829871  39.0413397  87.5203907  86.0961209
  37.6149626  87.4748341  85.5908785  38.3694788  88.4305706  83.3003867
  38.9739928  88.9667501  83.8135204  37.5476158  88.9211935  83.3082781
  45.8730461  86.9580225  74.9546207  46.4775602  87.4942020  75.4677544
  45.0511831  87.4486454  74.9625121  55.1279308  87.7903224  78.1872028
  55.7324449  88.3265018  78.7003366  54.3060678  88.2809452  78.1950942
  61.2538422  90.8561660  81.3040484  61.8583563  91.3923455  81.8171821
  60.4319792  91.3467889  81.3119398  63.2091463  90.9580477  79.3678926
  63.8136603  91.4942271  79.8810263  62.3872833  91.4486705  79.3757840
  59.5178623  92.7132183  81.9254369  60.1223764  93.2493977  82.4385706
  58.6959993  93.2038411  81.9333283  58.7179085  95.5461331  88.6601631
  59.3224226  96.0823125  89.1732968  57.8960455  96.0367559  88.6680545
  55.7406354  96.7546031  85.3086909  56.3451495  97.2907826  85.8218246
  54.9187724  97.2452260  85.3165823  64.6928135  93.9927446  90.7227751
  65.2973275  94.5289240  91.2359088  63.8709505  94.4833674  90.7306665
  68.6860588  55.7763966 132.4473882  68.0122287  56.0795663 133.0558840
  69.0726410  56.5793046 132.0979339  70.7768058  47.5672179 130.9821322
  70.1597229  46.8419007 130.8854375  70.3084547  48.3281539 130.6388396
  72.6517329  53.3549450 133.7213705  73.3468233  53.9756142 133.9401020
  72.9940479  52.5044801 133.9966083  66.7432197  53.4611201 132.6288799
  66.1706164  54.0801388 132.1759271  67.3164991  54.0110563 133.1628721
  69.9629457  53.7448351 133.7597381  70.8960130  53.6793913 133.9630257
  69.8752670  54.5804618 133.3011914  72.5917474  53.0614222 130.7201329
  72.5131105  52.7274085 131.6137086  73.4127140  53.5535990 130.7192801
  70.1621425  50.3782217 130.3411307  70.8657276  50.5832220 130.9568963
  69.4384074  50.9458979 130.6060390  72.0708123  50.8164746 132.3909767
  72.9053727  50.3845945 132.2087242  71.9092466  50.6446760 133.3186661
  73.5321978  57.2702294 132.9044720  72.6959290  57.6076980 133.2253994
  73.3926748  57.1351273 131.9671857  73.4060358  57.1149521 130.1042626
  72.5289825  56.9938322 129.7404873  73.8818112  56.3235599 129.8521515
  71.1078827  58.0548524 133.6624282  70.4148072  58.1292879 133.0064318
  70.8630579  57.2908867 134.1845799  76.1515667  58.0513908 129.9059736
  75.2447123  57.7547021 129.9822450  76.4291648  57.7543726 129.0394023
  74.9214452  54.9100843 130.0471716  75.7833616  55.2355742 130.3067533
  75.1064796  54.1232339 129.5344781  75.8743895  52.1496886 133.3351425
  75.8622565  53.0938726 133.4919696  76.7667317  51.9667032 133.0410886
  68.6860589  32.7826089 119.1719189  68.0122288  33.0857785 119.7804146
  69.0726411  33.5855169 118.8224646  70.7768059  24.5734302 117.7066629
  70.1597230  23.8481130 117.6099681  70.3084548  25.3343662 117.3633703
  72.6517330  30.3611572 120.4459012  73.3468235  30.9818265 120.6646326
  72.9940480  29.5106923 120.7211390  66.7432199  30.4673324 119.3534105
  66.1706166  31.0863511 118.9004577  67.3164992  31.0172686 119.8874027
  69.9629458  30.7510474 120.4842688  70.8960131  30.6856036 120.6875563
  69.8752671  31.5866741 120.0257220  72.5917475  30.0676344 117.4446635
  72.5131106  29.7336208 118.3382393  73.4127142  30.5598112 117.4438108
  70.1621427  27.3844340 117.0656614  70.8657277  27.5894342 117.6814269
  69.4384076  27.9521102 117.3305697  72.0708124  27.8226869 119.1155074
  72.9053728  27.3908067 118.9332548  71.9092467  27.6508883 120.0431968
  80.6992399  38.3396520 129.2110250  81.3370809  38.2203267 128.5073590
  80.5813242  39.2877364 129.2698202  77.5082106  38.2923948 129.1471775
  77.1700617  38.1765013 128.2592310  78.3771874  37.8915113 129.1272781
  73.3668921  40.1459425 125.1368666  72.8033786  40.0549361 124.3684954
  73.2521316  39.3259329 125.6171159  78.9468480  43.8130392 120.4483131
  78.2956460  44.3984473 120.0617145  79.7412843  44.3436587 120.5078168
  72.8724107  40.9019529 120.8470265  73.6454983  40.3548516 120.7083141
  73.2249506  41.7663779 121.0584727  75.2090385  37.0612196 118.4788715
  75.4615906  36.5393717 117.7172178  74.2714944  36.8978341 118.5815399
  80.2533668  36.0647974 126.2863458  81.0396757  35.6467397 125.9353875
  80.5172372  36.9694066 126.4545107  80.4243745  41.5020824 120.9852115
  79.7889578  41.5755451 121.6973020  80.0941151  42.0914423 120.3071194
  74.9286674  38.9640301 120.6813090  74.8122932  38.2885205 121.3494174
  75.0388934  38.4772675 119.8645243  77.2718215  38.4250449 124.3859779
  76.9076422  37.8981070 125.0972701  78.1285330  38.0348918 124.2126265
  76.9123702  33.4540348 119.3821128  77.0798104  34.3220585 119.7491599
  76.7220871  33.6167630 118.4582417  79.6699035  41.9157327 131.0486958
  79.3699758  42.8182366 130.9402765  79.3250094  41.6489510 131.9008111
  76.8912922  35.9098006 120.3667795  76.7712548  36.3555057 121.2053275
  76.1965511  36.2583323 119.8081333  74.6519815  48.6801648 124.0157926
  74.5743844  49.6309473 124.0946406  74.0481458  48.3347520 124.6732852
  82.5897989  36.3819479 121.1948129  83.5015845  36.6146866 121.0195826
  82.0807636  36.9656523 120.6323207  81.1967571  41.3645297 128.5861710
  80.5676433  41.5291012 127.8837778  80.8093233  41.7786907 129.3572674
  85.0756803  42.2999735 125.9406074  84.3907841  42.6798637 125.3903107
  85.1600652  42.9095062 126.6738022  76.7495533  41.1019705 125.8511795
  77.2133878  41.3807408 125.0616418  76.4852331  40.2003150 125.6684886
  75.6864419  37.2242858 122.6601360  76.3888462  37.6763902 123.1275287
  75.3545047  36.5826677 123.2881254  83.4453562  42.8231650 130.7123775
  84.2671006  42.4211837 130.4306456  83.4415965  42.7199884 131.6639891
  76.9258183  44.0383800 122.7363466  76.7903858  44.8835336 123.1648313
  77.4667996  44.2403078 121.9729399  70.3787581  41.5559239 123.3091391
  70.8912101  42.3502489 123.4596955  71.0310294  40.8585529 123.2424992
  72.1882466  44.6724995 125.3914144  72.3649094  45.5942959 125.2035128
  72.9839299  44.3583414 125.8208524  73.3113781  46.1903169 131.3924486
  73.8621206  46.0620232 130.6201480  72.4725257  46.4898058 131.0419379
  68.3436498  39.8847893 124.0850961  69.1811720  40.2944901 123.8684669
  68.5214765  38.9447335 124.0551155  80.2400930  37.5522973 119.7734794
  79.7247553  38.3227578 120.0123182  79.9678238  36.8788110 120.3967856
  77.8248041  32.3972674 124.8320033  76.9689637  32.0079525 124.6525671
  78.2374993  32.4764635 123.9719818  85.2135204  40.3055328 121.7087968
  84.4364647  39.9666488 121.2643130  85.8926685  40.3107951 121.0342933
  80.0287233  35.4250066 121.5994575  79.7237368  35.7396215 122.4504719
  80.9817675  35.5031485 121.6421908  78.4733665  41.5840289 123.2487529
  77.9455026  40.8493048 122.9360767  77.9721167  42.3614965 123.0027498
  83.4526511  39.7789309 128.3654576  82.7950185  40.4688571 128.4534704
  84.2566910  40.1685741 128.7088562  82.2631970  38.1333682 126.4158517
  82.7763851  38.7663674 126.9180227  82.9133193  37.5334878 126.0501877
  73.5321979  34.2764416 119.6290026  72.6959292  34.6139103 119.9499301
  73.3926749  34.1413396 118.6917163  76.6186265  39.4020499 116.2522502
  75.7113327  39.1709753 116.4513651  77.1157297  38.6058118 116.4396484
  79.5254344  48.1118006 119.1719189  78.8516043  48.4149703 119.7804146
  79.9120166  48.9147087 118.8224646  79.5247848  37.0074553 123.7919538
  80.2719667  37.5195951 123.4826660  79.7939438  36.6858606 124.6523932
  77.7974498  39.5033094 120.7746493  76.8885718  39.2192127 120.8718962
  77.8269582  39.9232173 119.9149799  83.0293766  43.1139684 124.5437660
  82.5756093  42.2730593 124.6002851  82.3987733  43.7501082 124.8812440
  81.9726685  34.0431670 125.7738328  81.2349442  33.5309056 126.1048570
  82.2253459  33.6032051 124.9621604  81.4726705  44.9516180 125.4787478
  81.7649679  45.5121237 124.7599844  81.9825326  45.2444741 126.2340637
  76.3459392  37.1161715 126.8756288  76.4008002  36.1635551 126.7998764
  75.5350594  37.2721154 127.3597586  77.4950586  41.0441838 118.1134571
  77.0570016  40.3277697 117.6540208  78.2361027  41.2717953 117.5519662
  74.2851752  35.7338774 124.6346667  73.4719618  36.0332945 125.0411859
  74.7810747  35.3394463 125.3521149  76.4360330  45.7296531 126.5680931
  76.3936509  45.9557378 125.6389463  77.3523029  45.4959906 126.7166733
  85.6123701  39.3199035 124.1710890  85.4741600  39.5100631 123.2432079
  85.2559920  40.0818418 124.6278941  74.5526131  42.6059560 126.3642894
  75.3466729  42.1109880 126.1625469  73.8417823  42.0777423 126.0010600
  79.3720975  44.9877656 130.7155262  79.4257998  45.5568592 131.4832978
  78.5035757  45.1579541 130.3509299  70.8608894  36.7502642 122.4402647
  69.9306483  36.6887098 122.6572609  70.9566366  36.2278595 121.6439288
  77.1297407  43.1788582 130.0440731  76.9908493  42.8107367 130.9166669
  76.3412003  43.6936222 129.8724689  77.7245559  48.2797679 121.3866268
  77.8997315  47.8085722 122.2011890  77.0378347  48.9063445 121.6147528
  78.6802622  42.5570185 127.4329569  78.3452455  42.5170955 128.3287219
  78.1806568  41.8914901 126.9599979  81.6161814  39.9026219 117.7066629
  80.9990984  39.1773047 117.6099681  81.1478302  40.6635580 117.3633703
  72.2906644  51.4287042 128.1606128  72.5303242  52.0605566 128.8385146
  71.4475841  51.0775082 128.4471487  73.4060360  34.1211644 116.8287933
  72.5289826  34.0000444 116.4650180  73.8818113  33.3297722 116.5766822
  76.8034506  47.2366164 130.5647632  76.7304678  48.0421135 131.0766936
  76.3611899  47.4358130 129.7395653  76.5924286  46.4737934 124.0750453
  75.8091808  47.0159614 124.1688678  77.2917031  46.9911914 124.4744695
  79.9020936  32.2832563 126.7184659  80.3989635  31.5302526 126.3985729
  79.1307917  32.3196880 126.1527868  79.2633190  47.1352998 132.7205791
  79.9761162  47.7700463 132.6481692  78.7723218  47.2316864 131.9045792
  80.9850717  41.0404251 124.2923082  80.0506995  41.1605713 124.1227787
  81.1627385  40.1376717 124.0283092  84.3723268  36.8821570 124.8273116
  84.8383720  37.7149562 124.7533419  84.8230768  36.4166552 125.5318375
  82.4399499  43.2265391 121.8259268  82.7159343  43.1121986 122.7353142
  81.5703998  42.8282876 121.7871442  79.0753563  47.4751742 125.4692082
  79.2575958  46.6573398 125.9319834  79.8986549  47.6919434 125.0316972
  79.4095729  46.4019927 122.7307131  79.9383495  45.8912382 122.1177293
  79.6723948  46.0862457 123.5952664  72.7651476  47.4535044 125.4904906
  72.0961852  47.9381172 125.0068947  72.6264346  47.7004264 126.4048285
  76.9056745  49.4878787 132.0887565  77.4575053  49.6510409 132.8536650
  77.2462938  50.0783225 131.4167590  68.1339054  35.7153499 122.2700839
  68.4292495  34.8064177 122.2167892  67.2327089  35.6941238 121.9481841
  80.0425132  47.4360763 129.0751247  79.9176272  46.6350503 128.5662192
  80.7004223  47.9306956 128.5865217  82.1060041  45.2369783 130.7030797
  81.1590376  45.1175134 130.6309124  82.4542814  44.3492281 130.7857059
  69.8626895  33.3967597 122.3940164  69.5339601  32.5164975 122.2115270
  70.2166266  33.3415265 123.2816553  79.1106474  45.0322499 126.9035149
  78.9631436  44.1039207 127.0842719  79.9359968  45.0542590 126.4192225
  72.9768718  33.6840566 122.7615641  73.3164791  34.2126488 122.0394250
  73.4240839  34.0220972 123.5374208  82.7140596  45.8551058 127.9900022
  83.6387143  45.6493919 127.8524473  82.5455899  45.6067459 128.8989364
  74.9636865  32.1815188 120.9608934  75.6845228  32.5596441 120.4572651
  74.3402170  32.9004065 121.0643912  79.1067988  32.8860337 121.8967267
  79.3231603  33.7684975 121.5956095  78.6262055  32.4946550 121.1672909
  82.5035912  46.3736725 123.3462114  82.6772790  45.8083148 122.5935966
  82.9964803  47.1737620 123.1641603  75.1100489  31.7162978 123.7906471
  75.2316400  30.7879625 123.9897358  74.8202531  31.7301664 122.8784786
  88.3575303  39.1373148 124.9652413  88.8006449  38.3880474 124.5671537
  87.4801814  39.1283285 124.5826145  83.4911085  45.6903490 120.4459012
  84.1861989  46.3110183 120.6646326  83.8334235  44.8398841 120.7211390
  85.3902508  43.1403195 121.9746343  85.9153832  43.4790468 121.2495663
  85.3024860  42.2050211 121.7909477  77.0743168  49.2075179 126.3341596
  76.6348159  48.7151557 127.0274452  77.8251285  48.6648146 126.0933671
  69.5535507  45.3986719 126.3366224  70.3793527  45.0990491 125.9564867
  69.2029559  44.6294342 126.7856012  74.5217041  44.7513188 128.4063897
  73.8997050  44.0883893 128.1066125  75.1921907  44.7774320 127.7237545
  67.7544112  43.3173046 127.2955157  66.9176021  42.8895220 127.1139159
  67.7267758  43.5105489 128.2325949  74.0830547  43.3017111 121.8822358
  74.2318668  43.9852575 121.2289031  74.8896991  43.2822201 122.3971814
  71.8383180  39.3282289 122.8883427  71.5929222  38.4244619 123.0863637
  72.0079095  39.3299439 121.9462905  71.1078828  35.0610646 120.3869588
  70.4148073  35.1355001 119.7309624  70.8630580  34.2970990 120.9091105
  77.5825953  45.7965242 119.3534105  77.0099920  46.4155429 118.9004577
  78.1558747  46.3464603 119.8874027  80.8023213  46.0802392 120.4842688
  81.7353886  46.0147953 120.6875563  80.7146426  46.9158658 120.0257220
  83.4311229  45.3968262 117.4446635  83.3524861  45.0628126 118.3382393
  84.2520896  45.8890030 117.4438108  77.9672751  37.1326054 116.6950158
  78.9131856  37.0032262 116.7638576  77.5886996  36.3940716 117.1719586
  76.1515669  35.0576031 116.6305043  75.2447124  34.7609143 116.7067757
  76.4291650  34.7605849 115.7639329  77.7677734  29.6012920 122.7849284
  76.9578463  29.2560005 123.1604530  78.4562151  29.2920464 123.3736896
  74.9214453  31.9162966 116.7717022  75.7833617  32.2417864 117.0312840
  75.1064797  31.1294462 116.2590088  83.0747090  30.7891492 123.9152245
  82.4945759  31.4476296 123.5330298  82.8083022  29.9668837 123.5039663
  81.8571968  32.9491583 122.9708594  80.9697823  33.2341233 122.7528788
  82.2725957  32.7885346 122.1235870  69.8656218  47.5299334 128.0580038
  69.7310686  46.7699735 127.4918036  69.4488280  48.2540234 127.5908827
  81.0015181  42.7136257 117.0656614  81.7051031  42.9186260 117.6814269
  80.2777830  43.2813019 117.3305697  81.8312992  38.4646119 123.1858884
  81.7748193  38.9214670 122.3466516  82.3841334  37.7036803 123.0081726
  85.6417797  34.2535851 124.0109003  85.3854732  33.8532486 124.8417211
  85.0170665  34.9679644 123.8859142  73.0225344  48.4268651 128.2698481
  72.9057728  49.3714083 128.1677171  72.2017790  48.1242212 128.6584280
  82.9101879  43.1518787 119.1155074  83.7447483  42.7199985 118.9332548
  82.7486222  42.9800800 120.0431968  82.5647771  39.6550900 120.4811413
  82.5096575  39.4895171 119.5399857  81.9393826  40.3626933 120.6373603
  75.8743896  29.1559009 120.0596731  75.8622566  30.1000849 120.2165002
  76.7667318  28.9729154 119.7656192  74.0479858  49.0796913 131.4854409
  74.9507105  49.1120523 131.8020904  73.8217228  48.1497364 131.5000745
  75.8033460  47.8327899 128.1464488  74.8529091  47.8329761 128.0328860
  76.1065946  47.0860634 127.6300523  88.3475860  53.6215866 129.1471775
  88.0094372  53.5056931 128.2592310  89.2165628  53.2207031 129.1272781
  84.2062676  55.4751342 125.1368666  83.6427541  55.3841279 124.3684954
  84.0915071  54.6551247 125.6171159  81.7527108  56.9702534 127.9752886
  82.5448400  56.6293358 127.5599186  81.9923758  57.0797509 128.8955040
  89.7862234  59.1422310 120.4483131  89.1350214  59.7276390 120.0617145
  90.5806597  59.6728505 120.5078168  83.7117862  56.2311447 120.8470265
  84.4848738  55.6840434 120.7083141  84.0643260  57.0955696 121.0584727
  86.0484139  52.3904113 118.4788715  86.3009660  51.8685634 117.7172178
  85.1108698  52.2270259 118.5815399  91.0927422  51.3939892 126.2863458
  91.8790511  50.9759315 125.9353875  91.3566127  52.2985984 126.4545107
  91.2637500  56.8312742 120.9852115  90.6283333  56.9047368 121.6973020
  90.9334906  57.4206341 120.3071194  85.7680428  54.2932219 120.6813090
  85.6516686  53.6177123 121.3494174  85.8782688  53.8064593 119.8645243
  88.1111969  53.7542366 124.3859779  87.7470176  53.2272987 125.0972701
  88.9679085  53.3640835 124.2126265  87.7517456  48.7832266 119.3821128
  87.9191858  49.6512502 119.7491599  87.5614625  48.9459548 118.4582417
  83.9605271  53.6963042 127.0823663  83.0355767  53.5639256 127.2901354
  84.2089684  54.4757261 127.5793605  87.7306677  51.2389923 120.3667795
  87.6106302  51.6846974 121.2053275  87.0359265  51.5875241 119.8081333
  81.3214082  53.3396315 127.9167452  81.4506463  53.5930794 128.8306863
  80.6411533  53.9324023 127.5972107  85.4913569  64.0093565 124.0157926
  85.4137599  64.9601390 124.0946406  84.8875213  63.6639438 124.6732852
  93.4291743  51.7111397 121.1948129  94.3409599  51.9438783 121.0195826
  92.9201390  52.2948441 120.6323207  87.5889287  56.4311623 125.8511795
  88.0527633  56.7099326 125.0616418  87.3246085  55.5295068 125.6684886
  84.4813368  55.9783105 128.7891559  85.0514725  56.4070373 128.1509043
  85.0721480  55.6965689 129.4875744  86.5258173  52.5534776 122.6601360
  87.2282217  53.0055819 123.1275287  86.1938802  51.9118594 123.2881254
  80.2683507  50.8118328 127.9618494  79.4782561  51.0675857 127.4858605
  80.7594755  51.6266666 128.0670535  82.2198253  51.1762907 124.9201971
  81.4229416  51.2881602 125.4385466  81.9923845  51.5149560 124.0542861
  78.5521210  51.0648819 130.3933485  78.8029249  51.9495829 130.6591061
  79.0880759  50.8853420 129.6208577  87.7651938  59.3675718 122.7363466
  87.6297613  60.2127254 123.1648313  88.3061750  59.5694996 121.9729399
  81.2181335  56.8851156 123.3091391  81.7305856  57.6794406 123.4596955
  81.8704048  56.1877447 123.2424992  83.0276220  60.0016912 125.3914144
  83.2042848  60.9234877 125.2035128  83.8233054  59.6875332 125.8208524
  79.1830252  55.2139810 124.0850961  80.0205474  55.6236819 123.8684669
  79.3608520  54.2739253 124.0551155  91.0794684  52.8814891 119.7734794
  90.5641308  53.6519496 120.0123182  90.8071993  52.2080027 120.3967856
  88.6641795  47.7264592 124.8320033  87.8083392  47.3371442 124.6525671
  89.0768747  47.8056553 123.9719818  86.4383828  45.3449665 128.2377774
  87.3036825  45.1492474 127.8783664  86.5061337  45.1160017 129.1647131
  96.0528958  55.6347246 121.7087968  95.2758401  55.2958405 121.2643130
  96.7320439  55.6399869 121.0342933  90.8680987  50.7541983 121.5994575
  90.5631123  51.0688132 122.4504719  91.8211430  50.8323403 121.6421908
  89.3127419  56.9132207 123.2487529  88.7848781  56.1784966 122.9360767
  88.8114922  57.6906883 123.0027498  84.0446147  47.5751873 125.6094141
  84.6189899  47.3527054 124.8767334  84.6317129  47.6440567 126.3622742
  93.1025724  53.4625600 126.4158517  93.6157606  54.0955592 126.9180227
  93.7526948  52.8626795 126.0501877  84.3715734  49.6056334 119.6290026
  83.5353046  49.9431020 119.9499301  84.2320504  49.4705314 118.6917163
  86.3468815  44.4493122 124.3369210  85.6933227  44.1342139 123.7125825
  86.3049289  43.8268862 125.0629033  87.4580019  54.7312417 116.2522502
  86.5507081  54.5001670 116.4513651  87.9551051  53.9350036 116.4396484
  90.3648098  63.4409924 119.1719189  89.6909797  63.7441621 119.7804146
  90.7513920  64.2439004 118.8224646  89.5806555  50.9375055 128.6616858
  88.6629116  51.1590002 128.5038546  89.9966699  51.0121366 127.8028565
  90.3641603  52.3366471 123.7919538  91.1113422  52.8487868 123.4826660
  90.6333192  52.0150524 124.6523932  88.6368253  54.8325012 120.7746493
  87.7279472  54.5484045 120.8718962  88.6663337  55.2524090 119.9149799
  92.8120440  49.3723587 125.7738328  92.0743197  48.8600973 126.1048570
  93.0647213  48.9323969 124.9621604  79.2056423  52.5530526 124.7561695
  79.0080823  51.9599887 124.0312761  78.6503087  52.2482736 125.4737634
  87.1853147  52.4453632 126.8756288  87.2401757  51.4927469 126.7998764
  86.3744349  52.6013071 127.3597586  88.3344341  56.3733755 118.1134571
  87.8963771  55.6569614 117.6540208  89.0754782  56.6009870 117.5519662
  85.1245507  51.0630692 124.6346667  84.3113372  51.3624863 125.0411859
  85.6204501  50.6686381 125.3521149  96.4517455  54.6490952 124.1710890
  96.3135354  54.8392548 123.2432079  96.0953674  55.4110335 124.6278941
  84.6159582  48.6349048 130.2507902  85.2558961  48.4937807 129.5530865
  83.7837112  48.3483561 129.8746504  85.3919885  57.9351478 126.3642894
  86.1860484  57.4401798 126.1625469  84.6811578  57.4069341 126.0010600
  81.7002649  52.0794560 122.4402647  80.7700237  52.0179015 122.6572609
  81.7960121  51.5570512 121.6439288  81.6188198  48.6049373 125.0280888
  81.8795015  49.5194706 124.9190049  82.4405370  48.1373815 125.1777501
  83.0913123  50.0187130 132.1979713  83.7636177  49.8104492 131.5492362
  82.2642910  49.8209216 131.7584945  88.5639313  63.6089596 121.3866268
  88.7391069  63.1377640 122.2011890  87.8772101  64.2355363 121.6147528
  92.4555568  55.2318137 117.7066629  91.8384739  54.5064965 117.6099681
  91.9872057  55.9927497 117.3633703  84.2454114  49.4503561 116.8287933
  83.3683581  49.3292362 116.4650180  84.7211867  48.6589640 116.5766822
  75.7656254  54.2380721 126.9229440  76.4527294  53.9242451 126.3350455
  75.6104383  55.1422086 126.6496692  80.5690976  49.1270918 131.3514464
  80.4849165  48.5196587 130.6164874  79.7473683  49.6179936 131.3523960
  87.4318040  61.8029852 124.0750453  86.6485562  62.3451532 124.1688678
  88.1310785  62.3203831 124.4744695  90.7414690  47.6124481 126.7184659
  91.2383390  46.8594443 126.3985729  89.9701672  47.6488798 126.1527868
  91.8244471  56.3696168 124.2923082  90.8900750  56.4897631 124.1227787
  92.0021139  55.4668635 124.0283092  87.3249659  49.7541864 126.4456343
  86.9547447  49.2012905 127.1337249  87.8208752  49.1499998 125.8931343
  95.2117022  52.2113488 124.8273116  95.6777475  53.0441479 124.7533419
  95.6624523  51.7458469 125.5318375  93.2793253  58.5557309 121.8259268
  93.5553097  58.4413904 122.7353142  92.4097752  58.1574794 121.7871442
  90.2489483  61.7311845 122.7307131  90.7777249  61.2204299 122.1177293
  90.5117703  61.4154375 123.5952664  75.3424230  52.3181314 129.1946907
  75.3808330  51.7844905 129.9884025  74.8364523  51.7916520 128.5757884
  82.7214993  47.1645855 132.6909450  82.7856319  48.0260686 132.2786847
  82.6582113  46.5519857 131.9581808  78.9732808  51.0445417 122.2700839
  79.2686249  50.1356095 122.2167892  78.0720844  51.0233156 121.9481841
  82.5027055  49.1201413 128.2528387  81.7813641  49.7337381 128.1135861
  83.2920311  49.6559178 128.1745033  80.7020650  48.7259514 122.3940164
  80.3733356  47.8456893 122.2115270  81.0560020  48.6707183 123.2816553
  83.8162473  49.0132484 122.7615641  84.1558545  49.5418405 122.0394250
  84.2634593  49.3512890 123.5374208  85.8030620  47.5107106 120.9608934
  86.5238982  47.8888358 120.4572651  85.1795924  48.2295982 121.0643912
  89.9461743  48.2152255 121.8967267  90.1625357  49.0976892 121.5956095
  89.4655810  47.8238468 121.1672909  84.6860964  51.1737968 128.4738011
  84.5405545  51.4878271 129.3662293  84.2086168  51.7922868 127.9208910
  86.5457347  48.1640516 128.5218901  86.5318916  47.2681609 128.1851199
  87.2629775  48.1711180 129.1557187  88.3983478  48.5977856 130.5672028
  88.1401256  49.5194927 130.5656359  87.8668518  48.2008291 131.2572492
  79.1606626  53.7143312 131.4125672  78.6160094  54.4903120 131.5445947
  80.0385976  54.0614117 131.2544794  85.9494243  47.0454896 123.7906471
  86.0710154  46.1171542 123.9897358  85.6596285  47.0593582 122.8784786
  88.8185433  44.7309806 126.9273191  88.8407130  44.7949140 125.9725170
  89.2353492  43.8914315 127.1213697  94.3304839  61.0195408 120.4459012
  95.0255744  61.6402100 120.6646326  94.6727989  60.1690759 120.7211390
  96.2296262  58.4695113 121.9746343  96.7547586  58.8082386 121.2495663
  96.1418615  57.5342128 121.7909477  80.3929262  60.7278637 126.3366224
  81.2187282  60.4282409 125.9564867  80.0423314  59.9586260 126.7856012
  78.5937867  58.6464964 127.2955157  77.7569775  58.2187138 127.1139159
  78.5661512  58.8397407 128.2325949  84.9224302  58.6309029 121.8822358
  85.0712422  59.3144493 121.2289031  85.7290745  58.6114119 122.3971814
  82.6776935  54.6574206 122.8883427  82.4322977  53.7536536 123.0863637
  82.8472849  54.6591357 121.9462905  81.9472582  50.3902564 120.3869588
  81.2541827  50.4646919 119.7309624  81.7024334  49.6262908 120.9091105
  88.4219707  61.1257159 119.3534105  87.8493675  61.7447346 118.9004577
  88.9952501  61.6756521 119.8874027  91.6416967  61.4094309 120.4842688
  92.5747640  61.3439871 120.6875563  91.5540180  62.2450576 120.0257220
  94.2704984  60.7260180 117.4446635  94.1918615  60.3920043 118.3382393
  95.0914651  61.2181948 117.4438108  88.8066506  52.4617972 116.6950158
  89.7525611  52.3324180 116.7638576  88.4280751  51.7232634 117.1719586
  86.9909423  50.3867948 116.6305043  86.0840879  50.0901061 116.7067757
  87.2685404  50.0897766 115.7639329  77.9087364  51.7074312 127.0804089
  77.5890148  50.8539620 126.7878463  77.3620792  51.9222890 127.8362057
  81.6867271  54.4236753 130.7973596  81.9053281  55.3553861 130.8161630
  82.0993045  54.0644727 131.5828400  88.6071489  44.9304838 122.7849284
  87.7972217  44.5851923 123.1604530  89.2955906  44.6212382 123.3736896
  90.5362037  44.0082885 124.4073581  91.0893076  44.4278338 125.0663604
  90.7732124  43.0818633 124.4496537  85.7608208  47.2454884 116.7717022
  86.6227372  47.5709782 117.0312840  85.9458552  46.4586379 116.2590088
  77.7775624  55.3277223 129.0497211  77.0839095  54.9131176 128.5367165
  78.5248615  55.3697760 128.4530630  93.9140844  46.1183410 123.9152245
  93.3339513  46.7768214 123.5330298  93.6476777  45.2960755 123.5039663
  79.6912366  55.2595477 126.9263226  79.6683054  55.3583164 125.9745109
  80.0013003  56.1060628 127.2480392  92.6965722  48.2783500 122.9708594
  91.8091577  48.5633151 122.7528788  93.1119711  48.1177264 122.1235870
  91.8408936  58.0428175 117.0656614  92.5444786  58.2478178 117.6814269
  91.1171584  58.6104937 117.3305697  92.6706746  53.7938036 123.1858884
  92.6141947  54.2506588 122.3466516  93.2235088  53.0328721 123.0081726
  96.4811552  49.5827768 124.0109003  96.2248486  49.1824404 124.8417211
  95.8564420  50.2971562 123.8859142  93.7495633  58.4810704 119.1155074
  94.5841237  58.0491903 118.9332548  93.5879976  58.3092718 120.0431968
  93.4041525  54.9842818 120.4811413  93.3490329  54.8187089 119.5399857
  92.7787581  55.6918850 120.6373603  78.1934040  50.2210882 134.3072835
  78.8392904  49.7109836 134.7960060  77.9851191  50.9579564 134.8816260
  86.7137651  44.4850927 120.0596731  86.7016321  45.4292766 120.2165002
  87.6061073  44.3021072 119.7656192  90.5289770  41.0793703 124.3142668
  89.7622166  40.5252190 124.4599350  90.9400475  41.1515572 125.1756820
  95.2109488  64.9348252 119.6290026  94.3746801  65.2722938 119.9499301
  95.0714258  64.7997231 118.6917163  95.0847869  64.7795479 116.8287933
  94.2077335  64.6584280 116.4650180  95.5605622  63.9881557 116.5766822
  92.7866337  65.7194482 120.3869588  92.0935582  65.7938837 119.7309624
  92.5418089  64.9554825 120.9091105  97.8303178  65.7159866 116.6305043
  96.9234633  65.4192979 116.7067757  98.1079159  65.4189684 115.7639329
  96.6001962  62.5746801 116.7717022  97.4621126  62.9001700 117.0312840
  96.7852306  61.7878297 116.2590088  97.5531405  59.8142844 120.0596731
  97.5410075  60.7584684 120.2165002  98.4454827  59.6312990 119.7656192
  68.6860591   9.7888211 105.8964495  68.0122289  10.0919908 106.5049453
  69.0726413  10.5917292 105.5469952  70.7768061   1.5796424 104.4311935
  70.1597231   0.8543252 104.3344988  70.3084549   2.3405785 104.0879010
  72.6517331   7.3673695 107.1704318  73.3468236   7.9880387 107.3891633
  72.9940481   6.5169046 107.4456696  66.7432200   7.4735446 106.0779412
  66.1706167   8.0925634 105.6249884  67.3164993   8.0234808 106.6119334
  69.9629460   7.7572597 107.2087994  70.8960133   7.6918158 107.4120870
  69.8752672   8.5928863 106.7502527  72.5917476   7.0738467 104.1691942
  72.5131108   6.7398331 105.0627700  73.4127143   7.5660235 104.1683414
  70.1621428   4.3906462 103.7901920  70.8657278   4.5956465 104.4059576
  69.4384077   4.9583224 104.0551004  72.0708125   4.8288992 105.8400380
  72.9053729   4.3970190 105.6577855  71.9092468   4.6571005 106.7677275
  80.6992400  15.3458643 115.9355557  81.3370810  15.2265390 115.2318897
  80.5813243  16.2939487 115.9943509  77.5082107  15.2986071 115.8717082
  77.1700618  15.1827135 114.9837617  78.3771875  14.8977236 115.8518088
  73.3668922  17.1521547 111.8613973  72.8033788  17.0611484 111.0930260
  73.2521318  16.3321452 112.3416465  78.9468481  20.8192515 107.1728438
  78.2956461  21.4046595 106.7862451  79.7412844  21.3498710 107.2323475
  72.8724108  17.9081652 107.5715572  73.6454984  17.3610639 107.4328448
  73.2249507  18.7725901 107.7830033  75.2090386  14.0674318 105.2034022
  75.4615907  13.5455839 104.4417485  74.2714945  13.9040464 105.3060705
  80.2533669  13.0710096 113.0108765  81.0396758  12.6529520 112.6599182
  80.5172373  13.9756189 113.1790413  80.4243746  18.5082947 107.7097422
  79.7889579  18.5817573 108.4218326  80.0941153  19.0976546 107.0316501
  74.9286675  15.9702424 107.4058397  74.8122933  15.2947327 108.0739481
  75.0388935  15.4834798 106.5890550  77.2718216  15.4312571 111.1105086
  76.9076423  14.9043192 111.8218007  78.1285332  15.0411040 110.9371571
  76.9123703  10.4602471 106.1066435  77.0798105  11.3282707 106.4736906
  76.7220872  10.6229753 105.1827724  79.6699036  18.9219450 117.7732265
  79.3699759  19.8244489 117.6648072  79.3250096  18.6551633 118.6253418
  76.8912924  12.9160128 107.0913101  76.7712549  13.3617179 107.9298582
  76.1965512  13.2645446 106.5326639  74.6519816  25.6863770 110.7403233
  74.5743845  26.6371595 110.8191713  74.0481459  25.3409643 111.3978159
  82.5897990  13.3881602 107.9193435  83.5015846  13.6208988 107.7441133
  82.0807637  13.9718646 107.3568514  81.1967572  18.3707420 115.3107017
  80.5676435  18.5353134 114.6083085  80.8093234  18.7849030 116.0817981
  85.0756804  19.3061858 112.6651381  84.3907842  19.6860759 112.1148414
  85.1600653  19.9157185 113.3983328  76.7495534  18.1081828 112.5757102
  77.2133880  18.3869531 111.7861724  76.4852332  17.2065273 112.3930193
  75.6864420  14.2304980 109.3846667  76.3888463  14.6826024 109.8520593
  75.3545049  13.5888799 110.0126560  83.4453564  19.8293772 117.4369081
  84.2671007  19.4273960 117.1551763  83.4415966  19.7262006 118.3885197
  76.9258185  21.0445923 109.4608772  76.7903859  21.8897459 109.8893620
  77.4667997  21.2465201 108.6974706  70.3787582  18.5621361 110.0336697
  70.8912103  19.3564611 110.1842262  71.0310295  17.8647652 109.9670299
  72.1882467  21.6787117 112.1159451  72.3649095  22.6005082 111.9280434
  72.9839300  21.3645537 112.5453830  73.3113782  23.1965291 118.1169793
  73.8621207  23.0682355 117.3446787  72.4725258  23.4960180 117.7664686
  68.3436499  16.8910015 110.8096268  69.1811721  17.3007024 110.5929976
  68.5214767  15.9509458 110.7796462  80.2400931  14.5585096 106.4980101
  79.7247554  15.3289701 106.7368488  79.9678239  13.8850232 107.1213162
  77.8248042   9.4034797 111.5565339  76.9689638   9.0141647 111.3770978
  78.2374994   9.4826758 110.6965125  85.2135205  17.3117451 108.4333274
  84.4364648  16.9728610 107.9888436  85.8926686  17.3170074 107.7588239
  80.0287234  12.4312188 108.3239882  79.7237370  12.7458337 109.1750025
  80.9817676  12.5093608 108.3667215  78.4733666  18.5902411 109.9732836
  77.9455028  17.8555171 109.6606073  77.9721169  19.3677088 109.7272804
  83.4526512  16.7851432 115.0899882  82.7950186  17.4750693 115.1780011
  84.2566911  17.1747864 115.4333869  82.2631971  15.1395805 113.1403824
  82.7763853  15.7725796 113.6425534  82.9133195  14.5397000 112.7747184
  73.5321981  11.2826539 106.3535333  72.6959293  11.6201225 106.6744608
  73.3926750  11.1475519 105.4162470  76.6186266  16.4082622 102.9767809
  75.7113328  16.1771875 103.1758958  77.1157298  15.6120241 103.1641791
  79.5254345  25.1180129 105.8964495  78.8516044  25.4211826 106.5049453
  79.9120167  25.9209209 105.5469952  79.5247849  14.0136676 110.5164845
  80.2719668  14.5258073 110.2071967  79.7939439  13.6920729 111.3769238
  77.7974500  16.5095217 107.4991799  76.8885719  16.2254249 107.5964269
  77.8269583  16.9294295 106.6395106  83.0293767  20.1201806 111.2682967
  82.5756094  19.2792716 111.3248157  82.3987734  20.7563204 111.6057747
  81.9726687  11.0493792 112.4983634  81.2349443  10.5371178 112.8293877
  82.2253460  10.6094174 111.6866911  81.4726706  21.9578303 112.2032785
  81.7649681  22.5183360 111.4845150  81.9825327  22.2506864 112.9585944
  76.3459394  14.1223837 113.6001595  76.4008003  13.1697674 113.5244071
  75.5350596  14.2783276 114.0842893  77.4950587  18.0503960 104.8379878
  77.0570017  17.3339819 104.3785515  78.2361028  18.2780075 104.2764969
  74.2851754  12.7400897 111.3591973  73.4719619  13.0395068 111.7657166
  74.7810748  12.3456586 112.0766456  76.4360331  22.7358654 113.2926238
  76.3936510  22.9619500 112.3634770  77.3523030  22.5022028 113.4412039
  85.6123702  16.3261157 110.8956196  85.4741601  16.5162753 109.9677386
  85.2559921  17.0880540 111.3524247  74.5526132  19.6121683 113.0888201
  75.3466731  19.1172003 112.8870776  73.8417825  19.0839546 112.7255906
  79.3720977  21.9939778 117.4400568  79.4257999  22.5630715 118.2078284
  78.5035758  22.1641663 117.0754606  70.8608896  13.7564765 109.1647953
  69.9306484  13.6949220 109.3817916  70.9566368  13.2340717 108.3684595
  77.1297408  20.1850705 116.7686038  76.9908494  19.8169489 117.6411976
  76.3412004  20.6998344 116.5969996  77.7245560  25.2859801 108.1111574
  77.8997316  24.8147845 108.9257197  77.0378348  25.9125568 108.3392835
  78.6802623  19.5632308 114.1574876  78.3452456  19.5233078 115.0532526
  78.1806569  18.8977024 113.6845286  81.6161815  16.9088342 104.4311935
  80.9990986  16.1835170 104.3344988  81.1478304  17.6697702 104.0879010
  72.2906646  28.4349164 114.8851435  72.5303244  29.0667688 115.5630453
  71.4475842  28.0837204 115.1716794  73.4060361  11.1273766 103.5533240
  72.5289827  11.0062567 103.1895486  73.8818114  10.3359845 103.3012128
  76.8034507  24.2428287 117.2892939  76.7304679  25.0483258 117.8012243
  76.3611900  24.4420252 116.4640960  76.5924287  23.4800057 110.7995760
  75.8091809  24.0221737 110.8933985  77.2917032  23.9974036 111.1990001
  79.9020937   9.2894686 113.4429965  80.3989637   8.5364648 113.1231036
  79.1307919   9.3259003 112.8773175  79.2633191  24.1415121 119.4451097
  79.9761163  24.7762585 119.3726999  78.7723220  24.2378987 118.6291099
  80.9850718  18.0466373 111.0168389  80.0506997  18.1667836 110.8473093
  81.1627386  17.1438840 110.7528399  84.3723269  13.8883693 111.5518423
  84.8383721  14.7211684 111.4778726  84.8230770  13.4228674 112.2563682
  82.4399500  20.2327514 108.5504575  82.7159344  20.1184108 109.4598449
  81.5703999  19.8344999 108.5116748  79.0753564  24.4813865 112.1937389
  79.2575959  23.6635521 112.6565141  79.8986550  24.6981557 111.7562279
  79.4095730  23.4082050 109.4552437  79.9383496  22.8974504 108.8422599
  79.6723949  23.0924580 110.3197970  72.7651478  24.4597166 112.2150213
  72.0961853  24.9443294 111.7314253  72.6264347  24.7066387 113.1293592
  76.9056746  26.4940910 118.8132871  77.4575054  26.6572532 119.5781957
  77.2462940  27.0845348 118.1412896  68.1339055  12.7215621 108.9946145
  68.4292496  11.8126300 108.9413199  67.2327091  12.7003361 108.6727148
  80.0425134  24.4422886 115.7996554  79.9176273  23.6412625 115.2907499
  80.7004225  24.9369079 115.3110524  82.1060042  22.2431906 117.4276104
  81.1590377  22.1237257 117.3554430  82.4542815  21.3554404 117.5102365
  69.8626896  10.4029719 109.1185470  69.5339603   9.5227098 108.9360576
  70.2166267  10.3477388 110.0061860  79.1106475  22.0384622 113.6280456
  78.9631438  21.1101329 113.8088026  79.9359969  22.0604713 113.1437531
  72.9768720  10.6902689 109.4860948  73.3164792  11.2188610 108.7639556
  73.4240840  11.0283095 110.2619515  82.7140597  22.8613181 114.7145329
  83.6387145  22.6556042 114.5769780  82.5455900  22.6129582 115.6234670
  74.9636867   9.1877311 107.6854241  75.6845229   9.5658563 107.1817958
  74.3402171   9.9066187 107.7889219  79.1067990   9.8922459 108.6212573
  79.3231604  10.7747097 108.3201401  78.6262057   9.5008673 107.8918215
  82.5035913  23.3798848 110.0707420  82.6772791  22.8145271 109.3181273
  82.9964805  24.1799743 109.8886910  75.1100490   8.7225101 110.5151777
  75.2316401   7.7941747 110.7142665  74.8202532   8.7363787 109.6030093
  88.3575304  16.1435271 111.6897720  88.8006451  15.3942596 111.2916843
  87.4801815  16.1345407 111.3071452  83.4911086  22.6965612 107.1704318
  84.1861990  23.3172305 107.3891633  83.8334236  21.8460964 107.4456696
  85.3902509  20.1465318 108.6991649  85.9153833  20.4852591 107.9740969
  85.3024861  19.2112333 108.5154784  77.0743170  26.2137301 113.0586902
  76.6348160  25.7213680 113.7519759  77.8251287  25.6710269 112.8178978
  69.5535509  22.4048842 113.0611530  70.3793529  22.1052614 112.6810174
  69.2029561  21.6356465 113.5101319  74.5217042  21.7575310 115.1309204
  73.8997051  21.0946015 114.8311432  75.1921909  21.7836442 114.4482852
  67.7544114  20.3235169 114.0200464  66.9176022  19.8957343 113.8384465
  67.7267759  20.5167612 114.9571255  74.0830549  20.3079234 108.6067665
  74.2318669  20.9914698 107.9534337  74.8896992  20.2884324 109.1217120
  71.8383182  16.3344411 109.6128733  71.5929224  15.4306741 109.8108944
  72.0079096  16.3361562 108.6708211  71.1078829  12.0672769 107.1114895
  70.4148074  12.1417124 106.4554931  70.8630581  11.3033113 107.6336412
  77.5825954  22.8027364 106.0779412  77.0099921  23.4217551 105.6249884
  78.1558748  23.3526726 106.6119334  80.8023214  23.0864514 107.2087994
  81.7353887  23.0210076 107.4120870  80.7146427  23.9220781 106.7502527
  83.4311231  22.4030385 104.1691942  83.3524862  22.0690248 105.0627700
  84.2520897  22.8952152 104.1683414  77.9672753  14.1388177 103.4195465
  78.9131857  14.0094385 103.4883883  77.5886998  13.4002839 103.8964893
  76.1515670  12.0638153 103.3550350  75.2447125  11.7671266 103.4313063
  76.4291651  11.7667971 102.4884636  77.7677736   6.6075043 109.5094591
  76.9578464   6.2622128 109.8849837  78.4562153   6.2982587 110.0982203
  74.9214455   8.9225088 103.4962329  75.7833619   9.2479987 103.7558146
  75.1064799   8.1356584 102.9835395  83.0747091   7.7953615 110.6397552
  82.4945760   8.4538419 110.2575604  82.8083024   6.9730960 110.2284969
  81.8571969   9.9553705 109.6953900  80.9697824  10.2403356 109.4774095
  82.2725958   9.7947469 108.8481177  69.8656219  24.5361456 114.7825345
  69.7310687  23.7761857 114.2163343  69.4488282  25.2602356 114.3154134
  81.0015182  19.7198380 103.7901920  81.7051033  19.9248382 104.4059576
  80.2777831  20.2875142 104.0551004  81.8312993  15.4708241 109.9104190
  81.7748194  15.9276793 109.0711823  82.3841335  14.7098926 109.7327033
  85.6417799  11.2597973 110.7354310  85.3854733  10.8594609 111.5662518
  85.0170667  11.9741767 110.6104449  73.0225345  25.4330773 114.9943788
  72.9057730  26.3776206 114.8922478  72.2017792  25.1304335 115.3829587
  82.9101880  20.1580909 105.8400380  83.7447484  19.7262108 105.6577855
  82.7486223  19.9862923 106.7677275  82.5647772  16.6613022 107.2056720
  82.5096576  16.4957294 106.2645164  81.9393827  17.3689055 107.3618909
  75.8743898   6.1621132 106.7842038  75.8622567   7.1062971 106.9410309
  76.7667319   5.9791277 106.4901499  74.0479859  26.0859035 118.2099716
  74.9507106  26.1182646 118.5266211  73.8217230  25.1559486 118.2246052
  75.8033461  24.8390022 114.8709795  74.8529093  24.8391884 114.7574167
  76.1065948  24.0922756 114.3545829  91.5386155  30.6750560 115.9355557
  92.1764565  30.5557308 115.2318897  91.4206998  31.6231404 115.9943509
  88.3475861  30.6277988 115.8717082  88.0094373  30.5119053 114.9837617
  89.2165629  30.2269153 115.8518088  84.2062677  32.4813465 111.8613973
  83.6427542  32.3903402 111.0930260  84.0915072  31.6613369 112.3416465
  81.7527109  33.9764656 114.6998193  82.5448401  33.6355481 114.2844492
  81.9923759  34.0859631 115.6200346  89.7862236  36.1484433 107.1728438
  89.1350215  36.7338513 106.7862451  90.5806598  36.6790627 107.2323475
  83.7117863  33.2373570 107.5715572  84.4848739  32.6902557 107.4328448
  84.0643262  34.1017819 107.7830033  85.5502905  34.5649952 120.7782471
  85.2592771  35.4695583 120.6629137  86.1859890  34.6066480 121.4926541
  86.4759112  31.9426800 117.3683831  87.0722685  31.7182823 116.6540794
  86.5334084  31.2011546 117.9709279  86.0484141  29.3966236 105.2034022
  86.3009661  28.8747757 104.4417485  85.1108700  29.2332381 105.3060705
  91.0927423  28.4002014 113.0108765  91.8790513  27.9821437 112.6599182
  91.3566128  29.3048106 113.1790413  91.2637501  33.8374864 107.7097422
  90.6283334  33.9109491 108.4218326  90.9334907  34.4268463 107.0316501
  85.7680429  31.2994342 107.4058397  85.6516687  30.6239245 108.0739481
  85.8782689  30.8126716 106.5890550  88.1111970  30.7604489 111.1105086
  87.7470178  30.2335110 111.8218007  88.9679086  30.3702958 110.9371571
  87.7517457  25.7894389 106.1066435  87.9191860  26.6574625 106.4736906
  87.5614626  25.9521670 105.1827724  90.5092790  34.2511367 117.7732265
  90.2093514  35.1536406 117.6648072  90.1643850  33.9843551 118.6253418
  83.9605272  30.7025164 113.8068969  83.0355768  30.5701378 114.0146661
  84.2089685  31.4819384 114.3038912  87.7306678  28.2452046 107.0913101
  87.6106303  28.6909097 107.9298582  87.0359267  28.5937364 106.5326639
  81.3214083  30.3458438 114.6412758  81.4506464  30.5992917 115.5552170
  80.6411534  30.9386146 114.3217413  85.4913570  41.0155688 110.7403233
  85.4137600  41.9663513 110.8191713  84.8875214  40.6701560 111.3978159
  93.4291744  28.7173519 107.9193435  94.3409600  28.9500906 107.7441133
  92.9201391  29.3010563 107.3568514  86.2377172  30.9969007 122.9582566
  86.9791857  31.5354051 122.6817390  85.5314158  31.6235295 123.1154118
  88.0663582  28.0770754 118.9288285  88.9124777  28.5010167 119.0722934
  88.0062220  27.4204378 119.6226848  92.0361327  33.6999338 115.3107017
  91.4070189  33.8645052 114.6083085  91.6486989  34.1140947 116.0817981
  95.9150559  34.6353776 112.6651381  95.2301597  35.0152677 112.1148414
  95.9994408  35.2449102 113.3983328  87.5889289  33.4373746 112.5757102
  88.0527634  33.7161449 111.7861724  87.3246087  32.5357190 112.3930193
  84.4813370  32.9845227 115.5136865  85.0514727  33.4132496 114.8754350
  85.0721481  32.7027812 116.2121051  86.5258175  29.5596898 109.3846667
  87.2282218  30.0117942 109.8520593  86.1938803  28.9180717 110.0126560
  80.2683509  27.8180451 114.6863801  79.4782563  28.0737979 114.2103911
  80.7594756  28.6328789 114.7915841  94.2847318  35.1585690 117.4369081
  95.1064762  34.7565877 117.1551763  94.2809721  35.0553924 118.3885197
  82.2198254  28.1825030 111.6447277  81.4229417  28.2943724 112.1630773
  81.9923846  28.5211682 110.7788168  88.0503922  34.7069733 119.5929792
  88.1148354  35.1690141 120.4287964  87.3414845  34.0767098 119.7212102
  78.5521212  28.0710941 117.1178791  78.8029250  28.9557951 117.3836367
  79.0880760  27.8915543 116.3453883  87.7651939  36.3737841 109.4608772
  87.6297614  37.2189376 109.8893620  88.3061752  36.5757118 108.6974706
  81.2181337  33.8913279 110.0336697  81.7305857  34.6856529 110.1842262
  81.8704049  33.1939569 109.9670299  83.0276221  37.0079035 112.1159451
  83.2042850  37.9297000 111.9280434  83.8233055  36.6937454 112.5453830
  82.3128578  29.0543667 121.9921614  82.1982093  28.1528924 122.2928713
  81.4573096  29.3007364 121.6406430  89.3920416  36.9961407 123.5909114
  88.9484270  36.2097786 123.2730019  90.0537629  37.1840558 122.9253005
  84.1507537  38.5257209 118.1169793  84.7014962  38.3974272 117.3446787
  83.3119013  38.8252098 117.7664686  87.9474708  34.7908337 122.4614024
  88.4803045  34.0296625 122.2313332  87.4188789  34.4981988 123.2038178
  79.1830253  32.2201933 110.8096268  80.0205475  32.6298941 110.5929976
  79.3608521  31.2801375 110.7796462  91.0794685  29.8877014 106.4980101
  90.5641309  30.6581618 106.7368488  90.8071994  29.2142150 107.1213162
  88.6641797  24.7326715 111.5565339  87.8083393  24.3433565 111.3770978
  89.0768748  24.8118675 110.6965125  86.4383829  22.3511788 114.9623081
  87.3036826  22.1554596 114.6028970  86.5061338  22.1222139 115.8892437
  96.0528960  32.6409368 108.4333274  95.2758402  32.3020528 107.9888436
  96.7320441  32.6461992 107.7588239  90.8680989  27.7604106 108.3239882
  90.5631124  28.0750255 109.1750025  91.8211431  27.8385526 108.3667215
  89.3127421  33.9194329 109.9732836  88.7848782  33.1847089 109.6606073
  88.8114923  34.6969006 109.7272804  94.2920267  32.1143350 115.0899882
  93.6343941  32.8042611 115.1780011  95.0960666  32.5039782 115.4333869
  84.0446148  24.5813995 112.3339448  84.6189900  24.3589177 111.6012640
  84.6317131  24.6502690 113.0868049  93.1025725  30.4687722 113.1403824
  93.6157607  31.1017714 113.6425534  93.7526949  29.8688918 112.7747184
  84.3715735  26.6118456 106.3535333  83.5353047  26.9493143 106.6744608
  84.2320505  26.4767436 105.4162470  86.3468816  21.4555244 111.0614517
  85.6933228  21.1404262 110.4371132  86.3049290  20.8330985 111.7874340
  87.4580021  31.7374539 102.9767809  86.5507082  31.5063793 103.1758958
  87.9551053  30.9412159 103.1641791  90.3648100  40.4472047 105.8964495
  89.6909798  40.7503743 106.5049453  90.7513922  41.2501127 105.5469952
  89.5806556  27.9437178 115.3862165  88.6629118  28.1652125 115.2283853
  89.9966700  28.0183488 114.5273872  90.3641604  29.3428594 110.5164845
  91.1113423  29.8549991 110.2071967  90.6333193  29.0212646 111.3769238
  88.6368254  31.8387134 107.4991799  87.7279473  31.5546167 107.5964269
  88.6663338  32.2586213 106.6395106  93.8687522  35.4493724 111.2682967
  93.4149849  34.6084634 111.3248157  93.2381488  36.0855122 111.6057747
  92.8120441  26.3785710 112.4983634  92.0743198  25.8663096 112.8293877
  93.0647215  25.9386091 111.6866911  92.3120461  37.2870220 112.2032785
  92.6043435  37.8475278 111.4845150  92.8219081  37.5798781 112.9585944
  79.2056425  29.5592648 111.4807001  79.0080824  28.9662009 110.7558068
  78.6503088  29.2544859 112.1982940  87.1853148  29.4515755 113.6001595
  87.2401758  28.4989591 113.5244071  86.3744350  29.6075194 114.0842893
  88.3344342  33.3795878 104.8379878  87.8963772  32.6631737 104.3785515
  89.0754783  33.6071993 104.2764969  85.1245508  28.0692815 111.3591973
  84.3113374  28.3686985 111.7657166  85.6204502  27.6748503 112.0766456
  87.2754086  38.0650572 113.2926238  87.2330265  38.2911418 112.3634770
  88.1916785  37.8313946 113.4412039  96.4517457  31.6553075 110.8956196
  96.3135355  31.8454671 109.9677386  96.0953676  32.4172458 111.3524247
  84.6159583  25.6411170 116.9753208  85.2558962  25.4999929 116.2776172
  83.7837113  25.3545684 116.5991810  85.3919887  34.9413601 113.0888201
  86.1860485  34.4463921 112.8870776  84.6811579  34.4131464 112.7255906
  90.2114731  37.3231696 117.4400568  90.2651753  37.8922632 118.2078284
  89.3429513  37.4933581 117.0754606  81.7002650  29.0856682 109.1647953
  80.7700238  29.0241138 109.3817916  81.7960122  28.5632635 108.3684595
  81.6188199  25.6111495 111.7526195  81.8795017  26.5256828 111.6435356
  82.4405372  25.1435938 111.9022808  83.0913125  27.0249252 118.9225020
  83.7636178  26.8166614 118.2737669  82.2642911  26.8271338 118.4830252
  89.1702831  31.4891958 118.9987500  90.0994891  31.6403118 118.8256468
  88.7493861  31.5775979 118.1436147  87.9691163  35.5142623 116.7686038
  87.8302248  35.1461407 117.6411976  87.1805759  36.0290262 116.5969996
  88.5639315  40.6151719 108.1111574  88.7391070  40.1439762 108.9257197
  87.8772103  41.2417485 108.3392835  89.5196378  34.8924225 114.1574876
  89.1846210  34.8524995 115.0532526  89.0200324  34.2268941 113.6845286
  83.4940622  30.2991855 119.6827457  83.3560420  29.5672094 120.2838996
  84.4045545  30.2100755 119.4011645  92.4555570  32.2380260 104.4311935
  91.8384740  31.5127088 104.3344988  91.9872058  32.9989620 104.0879010
  86.1222923  30.0111815 119.1711136  86.8322541  29.3705007 119.1297755
  86.0792231  30.2624709 120.0937317  84.8351856  26.9977032 120.9906776
  84.2989214  26.5467771 121.6428372  84.2468565  27.1322941 120.2477240
  83.1300400  43.7641082 114.8851435  83.3696998  44.3959606 115.5630453
  82.2869596  43.4129122 115.1716794  84.2454115  26.4565684 103.5533240
  83.3683582  26.3354485 103.1895486  84.7211869  25.6651762 103.3012128
  75.7656256  31.2442844 113.6474747  76.4527295  30.9304574 113.0595762
  75.6104384  32.1484208 113.3741998  80.5690978  26.1333040 118.0759770
  80.4849166  25.5258710 117.3410180  79.7473684  26.6242059 118.0769267
  87.6428262  39.5720204 117.2892939  87.5698433  40.3775176 117.8012243
  87.2005655  39.7712170 116.4640960  87.4318041  38.8091974 110.7995760
  86.6485563  39.3513654 110.8933985  88.1310787  39.3265954 111.1990001
  90.7414692  24.6186604 113.4429965  91.2383391  23.8656566 113.1231036
  89.9701673  24.6550920 112.8773175  90.1026945  39.4707038 119.4451097
  90.8154918  40.1054503 119.3726999  89.6116974  39.5670904 118.6291099
  91.8244472  33.3758291 111.0168389  90.8900751  33.4959753 110.8473093
  92.0021141  32.4730758 110.7528399  87.3249660  26.7603987 113.1701650
  86.9547448  26.2075027 113.8582556  87.8208753  26.1562120 112.6176650
  95.2117024  29.2175610 111.5518423  95.6777476  30.0503602 111.4778726
  95.6624524  28.7520592 112.2563682  85.1538859  37.2201482 120.2656668
  85.8548318  37.8537965 120.4186062  84.6833974  37.5616213 119.5052307
  93.2793255  35.5619432 108.5504575  93.5553099  35.4476026 109.4598449
  92.4097753  35.1636916 108.5116748  89.9147319  39.8105782 112.1937389
  90.0969713  38.9927438 112.6565141  90.7380305  40.0273475 111.7562279
  90.2489484  38.7373967 109.4552437  90.7777251  38.2266422 108.8422599
  90.5117704  38.4216498 110.3197970  80.7506577  36.7537837 117.1987771
  81.3360014  36.0081525 117.3315675  80.5531415  37.0641793 118.0824435
  83.6045232  39.7889084 112.2150213  82.9355607  40.2735212 111.7314253
  83.4658102  40.0358305 113.1293592  75.3424232  29.3243437 115.9192214
  75.3808331  28.7907028 116.7129332  74.8364525  28.7978643 115.3003191
  87.7450501  41.8232828 118.8132871  88.2968809  41.9864449 119.5781957
  88.0856694  42.4137266 118.1412896  82.7214994  24.1707977 119.4154756
  82.7856320  25.0322808 119.0032154  82.6582114  23.5581979 118.6827115
  78.9732809  28.0507539 108.9946145  79.2686250  27.1418218 108.9413199
  78.0720845  28.0295279 108.6727148  90.8818888  39.7714803 115.7996554
  90.7570028  38.9704543 115.2907499  91.5397979  40.2660997 115.3110524
  82.5027056  26.1263536 114.9773694  81.7813642  26.7399503 114.8381167
  83.2920312  26.6621301 114.8990340  92.9453796  37.5723823 117.4276104
  91.9984132  37.4529174 117.3554430  93.2936570  36.6846321 117.5102365
  80.7020651  25.7321637 109.1185470  80.3733357  24.8519016 108.9360576
  81.0560022  25.6769306 110.0061860  89.9500230  37.3676540 113.6280456
  89.8025192  36.4393247 113.8088026  90.7753723  37.3896630 113.1437531
  83.8162474  26.0194607 109.4860948  84.1558547  26.5480528 108.7639556
  84.2634595  26.3575013 110.2619515  93.5534352  38.1905098 114.7145329
  94.4780899  37.9847960 114.5769780  93.3849655  37.9421499 115.6234670
  85.8030621  24.5169228 107.6854241  86.5238984  24.8950481 107.1817958
  85.1795925  25.2358105 107.7889219  89.9461744  25.2214377 108.6212573
  90.1625358  26.1039015 108.3201401  89.4655811  24.8300591 107.8918215
  84.6860965  28.1800090 115.1983318  84.5405546  28.4940393 116.0907599
  84.2086169  28.7984991 114.6454216  86.5457348  25.1702638 115.2464207
  86.5318917  24.2743732 114.9096505  87.2629776  25.1773302 115.8802493
  88.3983479  25.6039979 117.2917335  88.1401257  26.5257049 117.2901665
  87.8668519  25.2070413 117.9817799  93.3429668  38.7090766 110.0707420
  93.5166545  38.1437188 109.3181273  93.8358559  39.5091661 109.8886910
  79.1606628  30.7205435 118.1370979  78.6160096  31.4965243 118.2691253
  80.0385977  31.0676239 117.9790100  85.9494244  24.0517019 110.5151777
  86.0710155  23.1233665 110.7142665  85.6596287  24.0655705 109.6030093
  88.8185435  21.7371929 113.6518497  88.8407131  21.8011262 112.6970477
  89.2353494  20.8976438 113.8459003  99.1969059  31.4727189 111.6897720
  99.6400205  30.7234514 111.2916843  98.3195569  31.4637325 111.3071452
  94.3304840  38.0257530 107.1704318  95.0255745  38.6464223 107.3891633
  94.6727990  37.1752881 107.4456696  79.9472649  29.8475331 121.0301136
  79.2054385  29.9957966 121.6165766  79.6265394  30.1083597 120.1667885
  96.2296263  35.4757236 108.6991649  96.7547587  35.8144508 107.9740969
  96.1418616  34.5404251 108.5154784  87.8916312  39.3891309 120.8281526
  88.2003439  39.1440456 121.7004225  88.6891794  39.5937948 120.3400396
  87.9136924  41.5429219 113.0586902  87.4741914  41.0505598 113.7519759
  88.6645041  41.0002187 112.8178978  80.3929263  37.7340760 113.0611530
  81.2187283  37.4344532 112.6810174  80.0423315  36.9648382 113.5101319
  85.3610796  37.0867228 115.1309204  84.7390806  36.4237933 114.8311432
  86.0315663  37.1128360 114.4482852  78.5937868  35.6527086 114.0200464
  77.7569776  35.2249261 113.8384465  78.5661514  35.8459530 114.9571255
  84.9224303  35.6371151 108.6067665  85.0712424  36.3206616 107.9534337
  85.7290747  35.6176241 109.1217120  82.6776936  31.6636329 109.6128733
  82.4322978  30.7598659 109.8108944  82.8472851  31.6653479 108.6708211
  81.9472584  27.3964687 107.1114895  81.2541829  27.4709042 106.4554931
  81.7024336  26.6325030 107.6336412  88.4219709  38.1319282 106.0779412
  87.8493676  38.7509469 105.6249884  88.9952502  38.6818643 106.6119334
  91.6416969  38.4156432 107.2087994  92.5747642  38.3501994 107.4120870
  91.5540181  39.2512699 106.7502527  94.2704985  37.7322302 104.1691942
  94.1918617  37.3982166 105.0627700  95.0914652  38.2244070 104.1683414
  88.8066507  29.4680095 103.4195465  89.7525612  29.3386303 103.4883883
  88.4280752  28.7294756 103.8964893  86.9909424  27.3930071 103.3550350
  86.0840880  27.0963184 103.4313063  87.2685405  27.0959889 102.4884636
  77.9087365  28.7136434 113.8049396  77.5890149  27.8601743 113.5123770
  77.3620793  28.9285012 114.5607363  81.6867272  31.4298875 117.5218903
  81.9053282  32.3615983 117.5406936  82.0993046  31.0706850 118.3073706
  88.6071490  21.9366961 109.5094591  87.7972218  21.5914046 109.8849837
  89.2955907  21.6274504 110.0982203  90.5362038  21.0145007 111.1318888
  91.0893077  21.4340461 111.7908911  90.7732125  20.0880756 111.1741844
  85.7608209  24.2517006 103.4962329  86.6227373  24.5771904 103.7558146
  85.9458553  23.4648502 102.9835395  77.7775625  32.3339346 115.7742518
  77.0839096  31.9193299 115.2612472  78.5248616  32.3759882 115.1775937
  93.9140845  23.1245533 110.6397552  93.3339515  23.7830337 110.2575604
  93.6476778  22.3022877 110.2284969  79.6912367  32.2657600 113.6508533
  79.6683055  32.3645287 112.6990416  80.0013004  33.1122750 113.9725699
  82.3499745  34.3233755 117.7655147  83.3042999  34.2917697 117.6985079
  82.1512269  33.8624378 118.5805373  82.9399127  32.8934871 120.3325945
  83.7592016  33.3878949 120.3560782  83.2135935  31.9766839 120.3043512
  92.6965724  25.2845623 109.6953900  91.8091579  25.5695274 109.4774095
  93.1119713  25.1239386 108.8481177  80.7049974  39.8653374 114.7825345
  80.5704442  39.1053775 114.2163343  80.2882036  40.5894274 114.3154134
  91.8408937  35.0490298 103.7901920  92.5444787  35.2540300 104.4059576
  91.1171586  35.6167060 104.0551004  92.6706747  30.8000159 109.9104190
  92.6141949  31.2568710 109.0711823  93.2235090  30.0390844 109.7327033
  96.4811553  26.5889891 110.7354310  96.2248487  26.1886526 111.5662518
  95.8564421  27.3033685 110.6104449  83.8619100  40.7622691 114.9943788
  83.7451484  41.7068124 114.8922478  83.0411546  40.4596253 115.3829587
  93.7495634  35.4872827 105.8400380  94.5841238  35.0554025 105.6577855
  93.5879977  35.3154841 106.7677275  93.4041527  31.9904940 107.2056720
  93.3490330  31.8249212 106.2645164  92.7787582  32.6980973 107.3618909
  78.1934042  27.2273005 121.0318142  78.8392905  26.7171959 121.5205367
  77.9851193  27.9641686 121.6061567  86.7137652  21.4913049 106.7842038
  86.7016322  22.4354889 106.9410309  87.6061074  21.3083195 106.4901499
  84.8873614  41.4150953 118.2099716  85.7900861  41.4474563 118.5266211
  84.6610984  40.4851404 118.2246052  86.6427216  40.1681940 114.8709795
  85.6922847  40.1683801 114.7574167  86.9459702  39.4214674 114.3545829
  90.5289771  18.0855826 111.0387975  89.7622167  17.5314313 111.1844657
  90.9400476  18.1577695 111.9002126 102.3779909  46.0042478 115.9355557
 103.0158319  45.8849225 115.2318897 102.2600752  46.9523322 115.9943509
  99.1869616  45.9569906 115.8717082  98.8488127  45.8410971 114.9837617
 100.0559384  45.5561071 115.8518088  95.0456431  47.8105382 111.8613973
  94.4821297  47.7195319 111.0930260  94.9308826  46.9905287 112.3416465
  92.5920863  49.3056574 114.6998193  93.3842155  48.9647399 114.2844492
  92.8317514  49.4151549 115.6200346 100.6255990  51.4776350 107.1728438
  99.9743970  52.0630431 106.7862451 101.4200353  52.0082545 107.2323475
  94.5511617  48.5665487 107.5715572  95.3242493  48.0194474 107.4328448
  94.9037016  49.4309737 107.7830033  96.3896660  49.8941870 120.7782471
  96.0986526  50.7987500 120.6629137  97.0253644  49.9358397 121.4926541
  97.3152867  47.2718718 117.3683831  97.9116439  47.0474741 116.6540794
  97.3727838  46.5303464 117.9709279  96.8877895  44.7258153 105.2034022
  97.1403416  44.2039675 104.4417485  95.9502454  44.5624299 105.3060705
 101.9321178  43.7293932 113.0108765 102.7184267  43.3113355 112.6599182
 102.1959882  44.6340024 113.1790413 102.1031255  49.1666782 107.7097422
 101.4677088  49.2401409 108.4218326 101.7728662  49.7560381 107.0316501
  96.6074184  46.6286259 107.4058397  96.4910442  45.9531163 108.0739481
  96.7176444  46.1418633 106.5890550  98.9505725  46.0896407 111.1105086
  98.5863932  45.5627027 111.8218007  99.8072841  45.6994876 110.9371571
  98.5911212  41.1186306 106.1066435  98.7585614  41.9866543 106.4736906
  98.4008381  41.2813588 105.1827724 101.3486545  49.5803285 117.7732265
 101.0487268  50.4828324 117.6648072 101.0037604  49.3135468 118.6253418
  94.7999026  46.0317082 113.8068969  93.8749523  45.8993296 114.0146661
  95.0483440  46.8111301 114.3038912  98.5700433  43.5743964 107.0913101
  98.4500058  44.0201014 107.9298582  97.8753021  43.9229281 106.5326639
  92.1607837  45.6750356 114.6412758  92.2900219  45.9284834 115.5552170
  91.4805289  46.2678064 114.3217413  96.3307325  56.3447605 110.7403233
  96.2531354  57.2955431 110.8191713  95.7268968  55.9993478 111.3978159
 104.2685499  44.0465437 107.9193435 105.1803355  44.2792824 107.7441133
 103.7595146  44.6302481 107.3568514  97.0770927  46.3260924 122.9582566
  97.8185611  46.8645968 122.6817390  96.3707912  46.9527213 123.1154118
  98.9057337  43.4062671 118.9288285  99.7518532  43.8302085 119.0722934
  98.8455974  42.7496296 119.6226848 102.8755081  49.0291255 115.3107017
 102.2463944  49.1936969 114.6083085 102.4880743  49.4432865 116.0817981
 106.7544313  49.9645693 112.6651381 106.0695351  50.3444595 112.1148414
 106.8388162  50.5741020 113.3983328  98.4283043  48.7665663 112.5757102
  98.8921389  49.0453366 111.7861724  98.1639841  47.8649108 112.3930193
  95.3207124  48.3137145 115.5136865  95.8908481  48.7424413 114.8754350
  95.9115236  48.0319730 116.2121051  97.3651929  44.8888816 109.3846667
  98.0675972  45.3409859 109.8520593  97.0332558  44.2472635 110.0126560
  91.1077263  43.1472368 114.6863801  90.3176317  43.4029897 114.2103911
  91.5988510  43.9620706 114.7915841 105.1241073  50.4877608 117.4369081
 105.9458516  50.0857795 117.1551763 105.1203475  50.3845842 118.3885197
  93.0592008  43.5116948 111.6447277  92.2623172  43.6235642 112.1630773
  92.8317601  43.8503600 110.7788168  98.8897676  50.0361651 119.5929792
  98.9542109  50.4982058 120.4287964  98.1808600  49.4059016 119.7212102
  89.3914966  43.4002859 117.1178791  89.6423004  44.2849869 117.3836367
  89.9274514  43.2207460 116.3453883  98.6045694  51.7029758 109.4608772
  98.4691368  52.5481294 109.8893620  99.1455506  51.9049036 108.6974706
  92.0575091  49.2205196 110.0336697  92.5699612  50.0148447 110.1842262
  92.7097804  48.5231487 109.9670299  93.8669976  52.3370953 112.1159451
  94.0436604  53.2588917 111.9280434  94.6626809  52.0229372 112.5453830
  93.1522332  44.3835585 121.9921614  93.0375847  43.4820842 122.2928713
  92.2966850  44.6299281 121.6406430 100.2314170  52.3253325 123.5909114
  99.7878024  51.5389704 123.2730019 100.8931384  52.5132475 122.9253005
  94.9901291  53.8549127 118.1169793  95.5408716  53.7266190 117.3446787
  94.1512767  54.1544016 117.7664686  98.7868462  50.1200254 122.4614024
  99.3196799  49.3588543 122.2313332  98.2582543  49.8273906 123.2038178
  90.0224008  47.5493851 110.8096268  90.8599230  47.9590859 110.5929976
  90.2002276  46.6093293 110.7796462 101.9188440  45.2168931 106.4980101
 101.4035063  45.9873536 106.7368488 101.6465748  44.5434068 107.1213162
  99.5035551  40.0618632 111.5565339  98.6477147  39.6725483 111.3770978
  99.9162503  40.1410593 110.6965125  97.2777584  37.6803705 114.9623081
  98.1430580  37.4846514 114.6028970  97.3455092  37.4514057 115.8892437
 106.8922714  47.9701286 108.4333274 106.1152157  47.6312446 107.9888436
 107.5714195  47.9753909 107.7588239 101.7074743  43.0896024 108.3239882
 101.4024879  43.4042173 109.1750025 102.6605185  43.1677443 108.3667215
 100.1521175  49.2486247 109.9732836  99.6242537  48.5139006 109.6606073
  99.6508678  50.0260923 109.7272804 105.1314021  47.4435267 115.0899882
 104.4737695  48.1334529 115.1780011 105.9354420  47.8331699 115.4333869
  94.8839903  39.9105913 112.3339448  95.4583655  39.6881095 111.6012640
  95.4710885  39.9794608 113.0868049 103.9419480  45.7979640 113.1403824
 104.4551362  46.4309632 113.6425534 104.5920704  45.1980836 112.7747184
  95.2109490  41.9410374 106.3535333  94.3746802  42.2785061 106.6744608
  95.0714259  41.8059354 105.4162470  97.1862570  36.7847162 111.0614517
  96.5326983  36.4696179 110.4371132  97.1443044  36.1622902 111.7874340
  98.2973775  47.0666457 102.9767809  97.3900837  46.8355711 103.1758958
  98.7944807  46.2704076 103.1641791 101.2041854  55.7763964 105.8964495
 100.5303553  56.0795661 106.5049453 101.5907676  56.5793045 105.5469952
 100.4200311  43.2729096 115.3862165  99.5022872  43.4944043 115.2283853
 100.8360454  43.3475406 114.5273872 101.2035358  44.6720511 110.5164845
 101.9507177  45.1841908 110.2071967 101.4726948  44.3504564 111.3769238
  99.4762009  47.1679052 107.4991799  98.5673228  46.8838085 107.5964269
  99.5057092  47.5878131 106.6395106 104.7081276  50.7785641 111.2682967
 104.2543603  49.9376551 111.3248157 104.0775243  51.4147040 111.6057747
 103.6514196  41.7077627 112.4983634 102.9136952  41.1955014 112.8293877
 103.9040969  41.2678009 111.6866911 103.1514215  52.6162138 112.2032785
 103.4437190  53.1767195 111.4845150 103.6612836  52.9090699 112.9585944
  90.0450179  44.8884566 111.4807001  89.8474579  44.2953927 110.7558068
  89.4896843  44.5836776 112.1982940  98.0246903  44.7807673 113.6001595
  98.0795512  43.8281509 113.5244071  97.2138105  44.9367112 114.0842893
  99.1738096  48.7087796 104.8379878  98.7357526  47.9923655 104.3785515
  99.9148537  48.9363910 104.2764969  95.9639263  43.3984732 111.3591973
  95.1507128  43.6978903 111.7657166  96.4598257  43.0040421 112.0766456
  98.1147840  53.3942489 113.2926238  98.0724019  53.6203336 112.3634770
  99.0310539  53.1605864 113.4412039 107.2911211  46.9844993 110.8956196
 107.1529110  47.1746589 109.9677386 106.9347430  47.7464375 111.3524247
  95.4553337  40.9703088 116.9753208  96.0952717  40.8291847 116.2776172
  94.6230868  40.6837601 116.5991810  96.2313641  50.2705518 113.0888201
  97.0254240  49.7755838 112.8870776  95.5205334  49.7423381 112.7255906
 101.0508486  52.6523614 117.4400568 101.1045508  53.2214550 118.2078284
 100.1823267  52.8225499 117.0754606  92.5396405  44.4148600 109.1647953
  91.6093993  44.3533055 109.3817916  92.6353877  43.8924553 108.3684595
  92.4581954  40.9403413 111.7526195  92.7188771  41.8548746 111.6435356
  93.2799126  40.4727855 111.9022808  93.9306879  42.3541170 118.9225020
  94.6029933  42.1458532 118.2737669  93.1036666  42.1563256 118.4830252
 100.0096585  46.8183876 118.9987500 100.9388645  46.9695035 118.8256468
  99.5887615  46.9067897 118.1436147  98.8084917  50.8434540 116.7686038
  98.6696003  50.4753325 117.6411976  98.0199513  51.3582180 116.5969996
  99.4033069  55.9443637 108.1111574  99.5784825  55.4731680 108.9257197
  98.7165857  56.5709403 108.3392835 100.3590132  50.2216143 114.1574876
 100.0239965  50.1816913 115.0532526  99.8594078  49.5560859 113.6845286
  94.3334376  45.6283773 119.6827457  94.1954174  44.8964012 120.2838996
  95.2439300  45.5392673 119.4011645 103.2949324  47.5672177 104.4311935
 102.6778495  46.8419005 104.3344988 102.8265812  48.3281538 104.0879010
  96.9616677  45.3403732 119.1711136  97.6716296  44.6996924 119.1297755
  96.9185985  45.5916627 120.0937317  95.6745611  42.3268950 120.9906776
  95.1382968  41.8759689 121.6428372  95.0862319  42.4614859 120.2477240
  93.9694154  59.0932999 114.8851435  94.2090753  59.7251524 115.5630453
  93.1263351  58.7421039 115.1716794  95.0847870  41.7857602 103.5533240
  94.2077336  41.6646402 103.1895486  95.5605623  40.9943680 103.3012128
  86.6050010  46.5734761 113.6474747  87.2921050  46.2596491 113.0595762
  86.4498139  47.4776126 113.3741998  91.4084732  41.4624958 118.0759770
  91.3242921  40.8550627 117.3410180  90.5867439  41.9533976 118.0769267
  98.4822016  54.9012122 117.2892939  98.4092188  55.7067093 117.8012243
  98.0399409  55.1004088 116.4640960  98.2711796  54.1383892 110.7995760
  97.4879318  54.6805572 110.8933985  98.9704541  54.6557872 111.1990001
 101.5808446  39.9478521 113.4429965 102.0777146  39.1948484 113.1231036
 100.8095428  39.9842838 112.8773175 100.9420700  54.7998956 119.4451097
 101.6548672  55.4346421 119.3726999 100.4510729  54.8962822 118.6291099
 102.6638227  48.7050209 111.0168389 101.7294506  48.8251671 110.8473093
 102.8414895  47.8022675 110.7528399  98.1643415  42.0895904 113.1701650
  97.7941202  41.5366945 113.8582556  98.6602507  41.4854038 112.6176650
 106.0510778  44.5467528 111.5518423 106.5171230  45.3795519 111.4778726
 106.5018279  44.0812509 112.2563682  95.9932613  52.5493399 120.2656668
  96.6942073  53.1829882 120.4186062  95.5227728  52.8908131 119.5052307
 104.1187009  50.8911349 108.5504575 104.3946853  50.7767944 109.4598449
 103.2491508  50.4928834 108.5116748 100.7541073  55.1397700 112.1937389
 100.9363468  54.3219356 112.6565141 101.5774059  55.3565392 111.7562279
 101.0883239  54.0665885 109.4552437 101.6171005  53.5558340 108.8422599
 101.3511458  53.7508415 110.3197970  91.5900331  52.0829754 117.1987771
  92.1753768  51.3373442 117.3315675  91.3925170  52.3933711 118.0824435
  94.4438987  55.1181002 112.2150213  93.7749362  55.6027129 111.7314253
  94.3051856  55.3650222 113.1293592  86.1817986  44.6535355 115.9192214
  86.2202086  44.1198945 116.7129332  85.6758279  44.1270560 115.3003191
  98.5844255  57.1524745 118.8132871  99.1362563  57.3156367 119.5781957
  98.9250449  57.7429183 118.1412896  93.5608748  39.4999895 119.4154756
  93.6250075  40.3614726 119.0032154  93.4975869  38.8873897 118.6827115
  89.8126564  43.3799457 108.9946145  90.1080005  42.4710135 108.9413199
  88.9114600  43.3587196 108.6727148 101.7212643  55.1006721 115.7996554
 101.5963782  54.2996461 115.2907499 102.3791734  55.5952914 115.3110524
  93.3420811  41.4555453 114.9773694  92.6207397  42.0691421 114.8381167
  94.1314067  41.9913218 114.8990340 103.7847551  52.9015741 117.4276104
 102.8377886  52.7821092 117.3554430 104.1330324  52.0138239 117.5102365
  91.5414405  41.0613554 109.1185470  91.2127112  40.1810933 108.9360576
  91.8953776  41.0061223 110.0061860 100.7893984  52.6968457 113.6280456
 100.6418947  51.7685165 113.8088026 101.6147478  52.7188548 113.1437531
  94.6556229  41.3486524 109.4860948  94.9952301  41.8772446 108.7639556
  95.1028349  41.6866930 110.2619515 104.3928106  53.5197016 114.7145329
 105.3174654  53.3139877 114.5769780 104.2243409  53.2713417 115.6234670
  96.6424376  39.8461146 107.6854241  97.3632738  40.2242399 107.1817958
  96.0189680  40.5650023 107.7889219 100.7855499  40.5506295 108.6212573
 101.0019113  41.4330933 108.3201401 100.3049566  40.1592508 107.8918215
  95.5254720  43.5092008 115.1983318  95.3799301  43.8232311 116.0907599
  95.0479924  44.1276908 114.6454216  97.3851103  40.4994556 115.2464207
  97.3712672  39.6035649 114.9096505  98.1023531  40.5065220 115.8802493
  99.2377234  40.9331896 117.2917335  98.9795011  41.8548967 117.2901665
  98.7062274  40.5362331 117.9817799 104.1823422  54.0382683 110.0707420
 104.3560300  53.4729106 109.3181273 104.6752314  54.8383578 109.8886910
  90.0000382  46.0497352 118.1370979  89.4553850  46.8257160 118.2691253
  90.8779732  46.3968157 117.9790100  96.7887999  39.3808936 110.5151777
  96.9103910  38.4525583 110.7142665  96.4990041  39.3947622 109.6030093
  99.6579189  37.0663847 113.6518497  99.6800886  37.1303180 112.6970477
 100.0747248  36.2268355 113.8459003 110.0362813  46.8019106 111.6897720
 110.4793959  46.0526432 111.2916843 109.1589324  46.7929243 111.3071452
 105.1698595  53.3549448 107.1704318 105.8649499  53.9756140 107.3891633
 105.5121745  52.5044799 107.4456696  90.7866404  45.1767249 121.0301136
  90.0448140  45.3249884 121.6165766  90.4659148  45.4375514 120.1667885
 107.0690018  50.8049153 108.6991649 107.5941342  51.1436426 107.9740969
 106.9812370  49.8696169 108.5154784  98.7310067  54.7183227 120.8281526
  99.0397193  54.4732374 121.7004225  99.5285549  54.9229865 120.3400396
  98.7530679  56.8721137 113.0586902  98.3135669  56.3797515 113.7519759
  99.5038796  56.3294104 112.8178978  91.2323018  53.0632677 113.0611530
  92.0581038  52.7636449 112.6810174  90.8817070  52.2940300 113.5101319
  96.2004551  52.4159146 115.1309204  95.5784560  51.7529851 114.8311432
  96.8709418  52.4420278 114.4482852  89.4331623  50.9819004 114.0200464
  88.5963531  50.5541178 113.8384465  89.4055268  51.1751447 114.9571255
  95.7618058  50.9663069 108.6067665  95.9106178  51.6498533 107.9534337
  96.5684501  50.9468159 109.1217120  93.5170691  46.9928247 109.6128733
  93.2716733  46.0890577 109.8108944  93.6866605  46.9945397 108.6708211
  92.7866338  42.7256604 107.1114895  92.0935583  42.8000959 106.4554931
  92.5418090  41.9616948 107.6336412  99.2613463  53.4611199 106.0779412
  98.6887430  54.0801387 105.6249884  99.8346257  54.0110561 106.6119334
 102.4810723  53.7448350 107.2087994 103.4141396  53.6793911 107.4120870
 102.3933936  54.5804616 106.7502527 105.1098740  53.0614220 104.1691942
 105.0312371  52.7274084 105.0627700 105.9308406  53.5535988 104.1683414
  99.6460262  44.7972012 103.4195465 100.5919366  44.6678220 103.4883883
  99.2674507  44.0586674 103.8964893  97.8303179  42.7221989 103.3550350
  96.9234634  42.4255101 103.4313063  98.1079160  42.4251807 102.4884636
  88.7481119  44.0428352 113.8049396  88.4283904  43.1893660 113.5123770
  88.2014547  44.2576930 114.5607363  92.5261027  46.7590793 117.5218903
  92.7447037  47.6907901 117.5406936  92.9386801  46.3998767 118.3073706
  99.4465245  37.2658878 109.5094591  98.6365973  36.9205963 109.8849837
 100.1349662  36.9566422 110.0982203 101.3755793  36.3436925 111.1318888
 101.9286832  36.7632379 111.7908911 101.6125879  35.4172673 111.1741844
  96.6001964  39.5808924 103.4962329  97.4621128  39.9063822 103.7558146
  96.7852308  38.7940420 102.9835395  88.6169379  47.6631263 115.7742518
  87.9232851  47.2485216 115.2612472  89.3642370  47.7051800 115.1775937
 104.7534600  38.4537450 110.6397552 104.1733269  39.1122254 110.2575604
 104.4870533  37.6314795 110.2284969  90.5306122  47.5949517 113.6508533
  90.5076810  47.6937205 112.6990416  90.8406758  48.4414668 113.9725699
  93.1893500  49.6525672 117.7655147  94.1436753  49.6209615 117.6985079
  92.9906023  49.1916296 118.5805373  93.7792882  48.2226788 120.3325945
  94.5985771  48.7170867 120.3560782  94.0529690  47.3058756 120.3043512
 103.5359478  40.6137541 109.6953900 102.6485333  40.8987191 109.4774095
 103.9513467  40.4531304 108.8481177  91.5443728  55.1945292 114.7825345
  91.4098196  54.4345693 114.2163343  91.1275791  55.9186192 114.3154134
 102.6802691  50.3782215 103.7901920 103.3838542  50.5832218 104.4059576
 101.9565340  50.9458977 104.0551004 103.5100502  46.1292077 109.9104190
 103.4535703  46.5860628 109.0711823 104.0628844  45.3682761 109.7327033
 107.3205308  41.9181808 110.7354310 107.0642242  41.5178444 111.5662518
 106.6958176  42.6325602 110.6104449  94.7012854  56.0914609 114.9943788
  94.5845238  57.0360041 114.8922478  93.8805301  55.7888170 115.3829587
 104.5889389  50.8164745 105.8400380 105.4234993  50.3845943 105.6577855
 104.4273732  50.6446758 106.7677275 104.2435281  47.3196858 107.2056720
 104.1884085  47.1541129 106.2645164 103.6181336  48.0272891 107.3618909
  89.0327796  42.5564922 121.0318142  89.6786660  42.0463876 121.5205367
  88.8244947  43.2933604 121.6061567  97.5531407  36.8204967 106.7842038
  97.5410076  37.7646807 106.9410309  98.4454828  36.6375112 106.4901499
  95.7267368  56.7442871 118.2099716  96.6294615  56.7766481 118.5266211
  95.5004739  55.8143322 118.2246052  97.4820970  55.4973857 114.8709795
  96.5316601  55.4975719 114.7574167  97.7853457  54.7506592 114.3545829
 101.3683526  33.4147743 111.0387975 100.6015922  32.8606230 111.1844657
 101.7794231  33.4869612 111.9002126 110.0263370  61.2861824 115.8717082
 109.6881882  61.1702888 114.9837617 110.8953138  60.8852989 115.8518088
 105.8850186  63.1397300 111.8613973 105.3215051  63.0487237 111.0930260
 105.7702581  62.3197205 112.3416465 103.4314618  64.6348492 114.6998193
 104.2235910  64.2939316 114.2844492 103.6711268  64.7443467 115.6200346
 111.4649745  66.8068268 107.1728438 110.8137724  67.3922348 106.7862451
 112.2594107  67.3374463 107.2323475 105.3905372  63.8957405 107.5715572
 106.1636248  63.3486392 107.4328448 105.7430771  64.7601654 107.7830033
 107.7271650  60.0550071 105.2034022 107.9797170  59.5331592 104.4417485
 106.7896209  59.8916217 105.3060705 112.7714932  59.0585849 113.0108765
 113.5578022  58.6405273 112.6599182 113.0353637  59.9631942 113.1790413
 112.9425010  64.4958700 107.7097422 112.3070843  64.5693326 108.4218326
 112.6122416  65.0852299 107.0316501 107.4467938  61.9578177 107.4058397
 107.3304196  61.2823080 108.0739481 107.5570198  61.4710551 106.5890550
 109.7899479  61.4188324 111.1105086 109.4257687  60.8918945 111.8218007
 110.6466595  61.0286793 110.9371571 109.4304966  56.4478224 106.1066435
 109.5979369  57.3158460 106.4736906 109.2402135  56.6105506 105.1827724
 105.6392781  61.3609000 113.8068969 104.7143277  61.2285214 114.0146661
 105.8877194  62.1403219 114.3038912 109.4094187  58.9035881 107.0913101
 109.2893812  59.3492932 107.9298582 108.7146776  59.2521199 106.5326639
 103.0001592  61.0042273 114.6412758 103.1293973  61.2576752 115.5552170
 102.3199043  61.5969981 114.3217413 107.1701079  71.6739523 110.7403233
 107.0925109  72.6247348 110.8191713 106.5662723  71.3285396 111.3978159
 115.1079253  59.3757355 107.9193435 116.0197109  59.6084741 107.7441133
 114.5988900  59.9594399 107.3568514 109.2676798  64.0957581 112.5757102
 109.7315143  64.3745284 111.7861724 109.0033596  63.1941026 112.3930193
 106.1600879  63.6429063 115.5136865 106.7302236  64.0716331 114.8754350
 106.7508990  63.3611647 116.2121051 108.2045684  60.2180733 109.3846667
 108.9069727  60.6701777 109.8520593 107.8726312  59.5764552 110.0126560
 101.9471018  58.4764286 114.6863801 101.1570072  58.7321815 114.2103911
 102.4382265  59.2912624 114.7915841 103.8985763  58.8408865 111.6447277
 103.1016926  58.9527560 112.1630773 103.6711355  59.1795518 110.7788168
 100.2308721  58.7294777 117.1178791 100.4816759  59.6141787 117.3836367
 100.7668269  58.5499378 116.3453883 109.4439448  67.0321676 109.4608772
 109.3085123  67.8773212 109.8893620 109.9849261  67.2340954 108.6974706
 102.8968846  64.5497114 110.0336697 103.4093366  65.3440364 110.1842262
 103.5491558  63.8523405 109.9670299 104.7063730  67.6662870 112.1159451
 104.8830359  68.5880835 111.9280434 105.5020564  67.3521290 112.5453830
 100.8617762  62.8785768 110.8096268 101.6992984  63.2882777 110.5929976
 101.0396030  61.9385211 110.7796462 112.7582194  60.5460849 106.4980101
 112.2428818  61.3165454 106.7368488 112.4859503  59.8725985 107.1213162
 110.3429306  55.3910550 111.5565339 109.4870902  55.0017400 111.3770978
 110.7556257  55.4702511 110.6965125 108.1171338  53.0095623 114.9623081
 108.9824335  52.8138432 114.6028970 108.1848847  52.7805975 115.8892437
 117.7316469  63.2993204 108.4333274 116.9545911  62.9604363 107.9888436
 118.4107950  63.3045827 107.7588239 112.5468498  58.4187941 108.3239882
 112.2418633  58.7334090 109.1750025 113.4998940  58.4969361 108.3667215
 110.9914929  64.5778165 109.9732836 110.4636291  63.8430924 109.6606073
 110.4902432  65.3552841 109.7272804 105.7233657  55.2397831 112.3339448
 106.2977409  55.0173012 111.6012640 106.3104640  55.3086525 113.0868049
 114.7813234  61.1271558 113.1403824 115.2945116  61.7601550 113.6425534
 115.4314458  60.5272753 112.7747184 106.0503244  57.2702292 106.3535333
 105.2140556  57.6076978 106.6744608 105.9108014  57.1351272 105.4162470
 108.0256325  52.1139080 111.0614517 107.3720737  51.7988097 110.4371132
 107.9836799  51.4914820 111.7874340 109.1367530  62.3958375 102.9767809
 108.2294591  62.1647628 103.1758958 109.6338562  61.5995994 103.1641791
 112.0435609  71.1055882 105.8964495 111.3697307  71.4087579 106.5049453
 112.4301431  71.9084962 105.5469952 111.2594065  58.6021013 115.3862165
 110.3416627  58.8235960 115.2283853 111.6754209  58.6767324 114.5273872
 112.0429113  60.0012429 110.5164845 112.7900932  60.5133826 110.2071967
 112.3120702  59.6796482 111.3769238 110.3155763  62.4970970 107.4991799
 109.4066982  62.2130002 107.5964269 110.3450847  62.9170048 106.6395106
 114.4907950  57.0369545 112.4983634 113.7530707  56.5246931 112.8293877
 114.7434724  56.5969927 111.6866911 100.8843933  60.2176484 111.4807001
 100.6868333  59.6245844 110.7558068 100.3290597  59.9128694 112.1982940
 108.8640657  60.1099590 113.6001595 108.9189267  59.1573427 113.5244071
 108.0531859  60.2659029 114.0842893 110.0131851  64.0379713 104.8379878
 109.5751281  63.3215572 104.3785515 110.7542292  64.2655828 104.2764969
 106.8033017  58.7276650 111.3591973 105.9900883  59.0270821 111.7657166
 107.2992011  58.3332339 112.0766456 118.1304966  62.3136910 110.8956196
 117.9922864  62.5038506 109.9677386 117.7741185  63.0756293 111.3524247
 106.2947092  56.2995006 116.9753208 106.9346471  56.1583765 116.2776172
 105.4624622  56.0129519 116.5991810 107.0707396  65.5997436 113.0888201
 107.8647994  65.1047756 112.8870776 106.3599088  65.0715299 112.7255906
 103.3790159  59.7440518 109.1647953 102.4487747  59.6824973 109.3817916
 103.4747631  59.2216470 108.3684595 103.2975708  56.2695330 111.7526195
 103.5582526  57.1840664 111.6435356 104.1192881  55.8019773 111.9022808
 104.7700634  57.6833088 118.9225020 105.4423687  57.4750450 118.2737669
 103.9430420  57.4855174 118.4830252 110.2426824  71.2735554 108.1111574
 110.4178579  70.8023598 108.9257197 109.5559612  71.9001321 108.3392835
 114.1343079  62.8964095 104.4311935 113.5172249  62.1710923 104.3344988
 113.6659567  63.6573455 104.0879010 105.9241624  57.1149519 103.5533240
 105.0471091  56.9938320 103.1895486 106.3999377  56.3235598 103.3012128
  97.4443765  61.9026679 113.6474747  98.1314804  61.5888409 113.0595762
  97.2891893  62.8068044 113.3741998 102.2478487  56.7916876 118.0759770
 102.1636675  56.1842545 117.3410180 101.4261193  57.2825894 118.0769267
 109.1105550  69.4675810 110.7995760 108.3273072  70.0097490 110.8933985
 109.8098296  69.9849789 111.1990001 112.4202201  55.2770439 113.4429965
 112.9170900  54.5240401 113.1231036 111.6489182  55.3134756 112.8773175
 113.5031981  64.0342126 111.0168389 112.5688260  64.1543589 110.8473093
 113.6808650  63.1314593 110.7528399 109.0037169  57.4187822 113.1701650
 108.6334957  56.8658862 113.8582556 109.4996262  56.8145956 112.6176650
 116.8904533  59.8759446 111.5518423 117.3564985  60.7087437 111.4778726
 117.3412033  59.4104427 112.2563682 114.9580764  66.2203267 108.5504575
 115.2340608  66.1059861 109.4598449 114.0885262  65.8220752 108.5116748
 111.9276993  69.3957803 109.4552437 112.4564760  68.8850257 108.8422599
 112.1905213  69.0800333 110.3197970  97.0211741  59.9827272 115.9192214
  97.0595840  59.4490863 116.7129332  96.5152034  59.4562478 115.3003191
 104.4002503  54.8291813 119.4154756 104.4643829  55.6906644 119.0032154
 104.3369623  54.2165815 118.6827115 100.6520318  58.7091375 108.9946145
 100.9473759  57.8002053 108.9413199  99.7508354  58.6879114 108.6727148
 104.1814565  56.7847371 114.9773694 103.4601151  57.3983339 114.8381167
 104.9707821  57.3205136 114.8990340 102.3808160  56.3905472 109.1185470
 102.0520866  55.5102851 108.9360576 102.7347531  56.3353141 110.0061860
 105.4949983  56.6778442 109.4860948 105.8346056  57.2064363 108.7639556
 105.9422103  57.0158848 110.2619515 107.4818130  55.1753064 107.6854241
 108.2026493  55.5534316 107.1817958 106.8583434  55.8941940 107.7889219
 111.6249253  55.8798213 108.6212573 111.8412867  56.7622850 108.3201401
 111.1443320  55.4884426 107.8918215 106.3648474  58.8383926 115.1983318
 106.2193055  59.1524229 116.0907599 105.8873678  59.4568826 114.6454216
 108.2244857  55.8286474 115.2464207 108.2106426  54.9327567 114.9096505
 108.9417285  55.8357137 115.8802493 110.0770988  56.2623814 117.2917335
 109.8188766  57.1840885 117.2901665 109.5456028  55.8654248 117.9817799
 100.8394137  61.3789270 118.1370979 100.2947605  62.1549078 118.2691253
 101.7173486  61.7260075 117.9790100 107.6281753  54.7100854 110.5151777
 107.7497664  53.7817500 110.7142665 107.3383796  54.7239540 109.6030093
 110.4972944  52.3955764 113.6518497 110.5194640  52.4595098 112.6970477
 110.9141003  51.5560273 113.8459003 116.0092349  68.6841365 107.1704318
 116.7043254  69.3048058 107.3891633 116.3515499  67.8336717 107.4456696
 117.9083772  66.1341071 108.6991649 118.4335096  66.4728344 107.9740969
 117.8206125  65.1988086 108.5154784 102.0716772  68.3924595 113.0611530
 102.8974792  68.0928367 112.6810174 101.7210824  67.6232218 113.5101319
 100.2725377  66.3110922 114.0200464  99.4357285  65.8833096 113.8384465
 100.2449023  66.5043365 114.9571255 106.6011812  66.2954987 108.6067665
 106.7499933  66.9790451 107.9534337 107.4078256  66.2760077 109.1217120
 104.3564445  62.3220164 109.6128733 104.1110487  61.4182494 109.8108944
 104.5260360  62.3237315 108.6708211 103.6260093  58.0548522 107.1114895
 102.9329338  58.1292877 106.4554931 103.3811845  57.2908866 107.6336412
 110.1007218  68.7903117 106.0779412 109.5281185  69.4093304 105.6249884
 110.6740011  69.3402479 106.6119334 113.3204478  69.0740267 107.2087994
 114.2535151  69.0085829 107.4120870 113.2327690  69.9096534 106.7502527
 115.9492494  68.3906138 104.1691942 115.8706126  68.0566001 105.0627700
 116.7702161  68.8827906 104.1683414 110.4854016  60.1263930 103.4195465
 111.4313121  59.9970138 103.4883883 110.1068261  59.3878592 103.8964893
 108.6696933  58.0513906 103.3550350 107.7628389  57.7547019 103.4313063
 108.9472914  57.7543724 102.4884636  99.5874874  59.3720270 113.8049396
  99.2677658  58.5185578 113.5123770  99.0408302  59.5868848 114.5607363
 103.3654781  62.0882711 117.5218903 103.5840791  63.0199819 117.5406936
 103.7780555  61.7290685 118.3073706 110.2858999  52.5950796 109.5094591
 109.4759727  52.2497881 109.8849837 110.9743416  52.2858340 110.0982203
 112.2149547  51.6728843 111.1318888 112.7680586  52.0924296 111.7908911
 112.4519634  50.7464591 111.1741844 107.4395718  54.9100842 103.4962329
 108.3014882  55.2355740 103.7558146 107.6246062  54.1232337 102.9835395
  99.4563134  62.9923181 115.7742518  98.7626605  62.5777134 115.2612472
 100.2036125  63.0343718 115.1775937 115.5928354  53.7829368 110.6397552
 115.0127024  54.4414172 110.2575604 115.3264287  52.9606713 110.2284969
 101.3699876  62.9241435 113.6508533 101.3470564  63.0229122 112.6990416
 101.6800513  63.7706586 113.9725699 114.3753232  55.9429458 109.6953900
 113.4879088  56.2279109 109.4774095 114.7907222  55.7823222 108.8481177
 113.5196446  65.7074133 103.7901920 114.2232296  65.9124136 104.4059576
 112.7959095  66.2750895 104.0551004 114.3494256  61.4583994 109.9104190
 114.2929458  61.9152546 109.0711823 114.9022599  60.6974679 109.7327033
 118.1599062  57.2473726 110.7354310 117.9035996  56.8470362 111.5662518
 117.5351930  57.9617520 110.6104449 115.4283143  66.1456662 105.8400380
 116.2628747  65.7137861 105.6577855 115.2667486  65.9738676 106.7677275
 115.0829036  62.6488776 107.2056720 115.0277839  62.4833047 106.2645164
 114.4575091  63.3564808 107.3618909  99.8721551  57.8856840 121.0318142
 100.5180414  57.3755794 121.5205367  99.6638702  58.6225522 121.6061567
 108.3925161  52.1496885 106.7842038 108.3803831  53.0938724 106.9410309
 109.2848583  51.9667030 106.4901499 112.2077280  48.7439661 111.0387975
 111.4409676  48.1898148 111.1844657 112.6187985  48.8161530 111.9002126
 116.8896999  72.5994209 106.3535333 116.0534311  72.9368896 106.6744608
 116.7501768  72.4643189 105.4162470 116.7635379  72.4441437 103.5533240
 115.8864845  72.3230238 103.1895486 117.2393132  71.6527515 103.3012128
 114.4653847  73.3840440 107.1114895 113.7723092  73.4584795 106.4554931
 114.2205599  72.6200783 107.6336412 119.5090688  73.3805824 103.3550350
 118.6022143  73.0838937 103.4313063 119.7866669  73.0835642 102.4884636
 118.2789472  70.2392759 103.4962329 119.1408636  70.5647657 103.7558146
 118.4639817  69.4524255 102.9835395 119.2318916  67.4788802 106.7842038
 119.2197585  68.4230642 106.9410309 120.1242337  67.2958948 106.4901499
  74.6519817   2.6925893  97.4648539  74.5743847   3.6433718  97.5437020
  74.0481461   2.3471765  98.1223466  72.2906647   5.4411287 101.6096741
  72.5303245   6.0729811 102.2875760  71.4475843   5.0899327 101.8962100
  72.7651479   1.4659289  98.9395520  72.0961854   1.9505417  98.4559560
  72.6264349   1.7128510  99.8538898  76.9056748   3.5003033 105.5378178
  77.4575056   3.6634654 106.3027263  77.2462941   4.0907470 104.8658203
  77.0743171   3.2199424  99.7832209  76.6348161   2.7275803 100.4765066
  77.8251288   2.6772391  99.5424284  69.8656221   1.5423579 101.5070652
  69.7310689   0.7823980 100.9408650  69.4488283   2.2664479 101.0399440
  73.0225347   2.4392896 101.7189094  72.9057731   3.3838329 101.6167784
  72.2017793   2.1366458 102.1074893  74.0479861   3.0921158 104.9345023
  74.9507107   3.1244768 105.2511518  73.8217231   2.1621609 104.9491358
  88.3475863   7.6340111 102.5962388  88.0094374   7.5181176 101.7082923
  89.2165631   7.2331276 102.5763394  84.2062678   9.4875587  98.5859279
  83.6427543   9.3965524  97.8175567  84.0915073   8.6675492  99.0661772
  81.7527110  10.9826779 101.4243500  82.5448402  10.6417604 101.0089799
  81.9923760  11.0921754 102.3445653  89.7862237  13.1546555  93.8973744
  89.1350217  13.7400636  93.5107758  90.5806600  13.6852750  93.9568782
  83.7117864  10.2435692  94.2960879  84.4848740   9.6964679  94.1573754
  84.0643263  11.1079942  94.5075340  85.5502907  11.5712075 107.5027778
  85.2592773  12.4757705 107.3874444  86.1859891  11.6128602 108.2171847
  86.4759114   8.9488923 104.0929137  87.0722686   8.7244945 103.3786100
  86.5334085   8.2073669 104.6954585  86.0484142   6.4028358  91.9279328
  86.3009663   5.8809880  91.1662791  85.1108701   6.2394504  92.0306012
  91.2637502  10.8436987  94.4342728  90.6283335  10.9171614  95.1463633
  90.9334908  11.4330586  93.7561808  85.7680431   8.3056464  94.1303703
  85.6516689   7.6301368  94.7984788  85.8782691   7.8188838  93.3135856
  88.1111972   7.7666611  97.8350393  87.7470179   7.2397232  98.5463314
  88.9679087   7.3765080  97.6616878  90.5092792  11.2573490 104.4977572
  90.2093515  12.1598529 104.3893379  90.1643851  10.9905673 105.3498724
  83.9605273   7.7087287 100.5314276  83.0355770   7.5763501 100.7391968
  84.2089686   8.4881506 101.0284218  81.3214084   7.3520560 101.3658065
  81.4506465   7.6055039 102.2797477  80.6411536   7.9448268 101.0462720
  85.4913572  18.0217810  97.4648539  85.4137601  18.9725635  97.5437020
  84.8875215  17.6763683  98.1223466  86.2377174   8.0031129 109.6827873
  86.9791858   8.5416173 109.4062697  85.5314159   8.6297418 109.8399425
  92.0361328  10.7061460 102.0352323  91.4070190  10.8707174 101.3328391
  91.6486990  11.1203070 102.8063288  95.9150560  11.6415898  99.3896687
  95.2301598  12.0214799  98.8393721  95.9994409  12.2511225 100.1228635
  87.5889290  10.4435868  99.3002409  88.0527635  10.7223571  98.5107031
  87.3246088   9.5419313  99.1175499  84.4813371   9.9907350 102.2382172
  85.0514728  10.4194618 101.5999656  85.0721483   9.7089935 102.9366357
  86.5258176   6.5659021  96.1091974  87.2282219   7.0180064  96.5765900
  86.1938804   5.9242840  96.7371867  80.2683510   4.8242573 101.4109107
  79.4782564   5.0800102 100.9349218  80.7594757   5.6390911 101.5161148
  94.2847319  12.1647813 104.1614388  95.1064763  11.7628000 103.8797070
  94.2809722  12.0616047 105.1130504  82.2198255   5.1887153  98.3692584
  81.4229418   5.3005847  98.8876080  81.9923847   5.5273805  97.5033474
  88.0503923  11.7131856 106.3175099  88.1148355  12.1752263 107.1533270
  87.3414847  11.0829221 106.4457408  78.5521213   5.0773064 103.8424098
  78.8029251   5.9620074 104.1081674  79.0880761   4.8977665 103.0699190
  87.7651940  13.3799963  96.1854079  87.6297615  14.2251499  96.6138927
  88.3061753  13.5819241  95.4220013  81.2181338  10.8975401  96.7582004
  81.7305858  11.6918652  96.9087569  81.8704051  10.2001692  96.6915605
  83.0276223  14.0141158  98.8404757  83.2042851  14.9359122  98.6525741
  83.8233056  13.6999577  99.2699137  82.3128579   6.0605790 108.7166920
  82.1982094   5.1591047 109.0174019  81.4573097   6.3069486 108.3651737
  89.3920417  14.0023530 110.3154421  88.9484271  13.2159908 109.9975326
  90.0537630  14.1902680 109.6498312  84.1507538  15.5319331 104.8415100
  84.7014963  15.4036395 104.0692093  83.3119014  15.8314220 104.4909992
  87.9474709  11.7970459 109.1859331  88.4803046  11.0358747 108.9558639
  87.4188790  11.5044111 109.9283485  79.1830255   9.2264056  97.5341575
  80.0205477   9.6361064  97.3175282  79.3608522   8.2863498  97.5041768
  96.0528961   9.6471491  95.1578581  95.2758404   9.3082650  94.7133743
  96.7320442   9.6524114  94.4833546  89.3127422  10.9256452  96.6978143
  88.7848783  10.1909211  96.3851380  88.8114924  11.7031128  96.4518111
  94.2920268   9.1205472 101.8145189  93.6343942   9.8104734 101.9025318
  95.0960667   9.5101904 102.1579175  87.4580022   8.7436662  89.7013116
  86.5507084   8.5125915  89.9004265  87.9551054   7.9474281  89.8887097
  90.3648101  17.4534169  92.6209802  89.6909800  17.7565866  93.2294760
  90.7513923  18.2563250  92.2715259  88.6368255   8.8449257  94.2237106
  87.7279475   8.5608290  94.3209576  88.6663339   9.2648335  93.3640413
  93.8687523  12.4555846  97.9928273  93.4149850  11.6146756  98.0493464
  93.2381490  13.0917245  98.3303054  92.3120462  14.2932343  98.9278091
  92.6043436  14.8537400  98.2090457  92.8219083  14.5860904  99.6831251
  79.2056426   6.5654771  98.2052308  79.0080826   5.9724132  97.4803375
  78.6503090   6.2606981  98.9228247  88.3344343  10.3858001  91.5625184
  87.8963773   9.6693859  91.1030822  89.0754784  10.6134115  91.0010276
  87.2754087  15.0712694 100.0171545  87.2330266  15.2973540  99.0880077
  88.1916786  14.8376069 100.1657346  85.3919888  11.9475723  99.8133507
  86.1860486  11.4526043  99.6116082  84.6811580  11.4193586  99.4501213
  90.2114732  14.3293819 104.1645875  90.2651755  14.8984755 104.9323591
  89.3429514  14.4995704 103.7999912  81.7002651   6.0918805  95.8893260
  80.7700240   6.0303260  96.1063222  81.7960123   5.5694758  95.0929901
  89.1702832   8.4954081 105.7232807  90.0994892   8.6465240 105.5501774
  88.7493862   8.5838102 104.8681453  87.9691164  12.5204745 103.4931345
  87.8302250  12.1523530 104.3657283  87.1805760  13.0352385 103.3215302
  88.5639316  17.6213842  94.8356881  88.7391072  17.1501885  95.6502504
  87.8772104  18.2479608  95.0638142  89.5196379  11.8986348 100.8820182
  89.1846212  11.8587118 101.7777832  89.0200325  11.2331064 100.4090593
  83.4940623   7.3053978 106.4072763  83.3560421   6.5734217 107.0084303
  84.4045547   7.2162878 106.1256951  92.4555571   9.2442382  91.1557242
  91.8384741   8.5189210  91.0590295  91.9872059  10.0051742  90.8124316
  86.1222924   7.0173937 105.8956443  86.8322542   6.3767129 105.8543062
  86.0792232   7.2686832 106.8182624  83.1300401  20.7703204 101.6096741
  83.3696999  21.4021729 102.2875760  82.2869598  20.4191244 101.8962100
  75.7656257   8.2504966 100.3720053  76.4527297   7.9366696  99.7841069
  75.6104386   9.1546331 100.0987305  87.6428263  16.5782327 104.0138245
  87.5698435  17.3837298 104.5257550  87.2005656  16.7774293 103.1886267
  87.4318043  15.8154097  97.5241067  86.6485565  16.3575777  97.6179291
  88.1310788  16.3328077  97.9235308  90.1026947  16.4769161 106.1696404
  90.8154919  17.1116626 106.0972305  89.6116975  16.5733027 105.3536406
  91.8244474  10.3820414  97.7413696  90.8900752  10.5021876  97.5718400
  92.0021142   9.4792880  97.4773705  85.1538860  14.2263604 106.9901975
  85.8548320  14.8600087 107.1431369  84.6833975  14.5678336 106.2297614
  93.2793256  12.5681554  95.2749882  93.5553100  12.4538149  96.1843756
  92.4097755  12.1699039  95.2362055  89.9147320  16.8167905  98.9182695
  90.0969715  15.9989561  99.3810448  90.7380306  17.0335597  98.4807585
  90.2489486  15.7436090  96.1797744  90.7777252  15.2328545  95.5667906
  90.5117705  15.4278620  97.0443277  80.7506578  13.7599959 103.9233077
  81.3360015  13.0143647 104.0560982  80.5531417  14.0703916 104.8069741
  83.6045233  16.7951207  98.9395520  82.9355609  17.2797334  98.4559560
  83.4658103  17.0420427  99.8538898  75.3424233   6.3305560 102.6437521
  75.3808332   5.7969150 103.4374639  74.8364526   5.8040765 102.0248498
  87.7450502  18.8294950 105.5378178  88.2968810  18.9926572 106.3027263
  88.0856695  19.4199388 104.8658203  78.9732811   5.0569662  95.7191452
  79.2686252   4.1480340  95.6658506  78.0720846   5.0357401  95.3972454
  90.8818889  16.7776926 102.5241860  90.7570029  15.9766666 102.0152806
  91.5397980  17.2723119 102.0355830  92.9453798  14.5785946 104.1521410
  91.9984133  14.4591297 104.0799737  93.2936571  13.6908444 104.2347672
  89.9500231  14.3738662 100.3525763  89.8025193  13.4455370 100.5333333
  90.7753725  14.3958753  99.8682838  93.5534353  15.1967221 101.4390635
  94.4780900  14.9910082 101.3015086  93.3849656  14.9483622 102.3479977
  84.6860967   5.1862213 101.9228624  84.5405547   5.5002516 102.8152906
  84.2086170   5.8047113 101.3699523  93.3429669  15.7152888  96.7952727
  93.5166547  15.1499311  96.0426579  93.8358560  16.5153783  96.6132217
  79.1606629   7.7267557 104.8616286  78.6160097   8.5027365 104.9936560
  80.0385979   8.0738362 104.7035407  94.3304842  15.0319653  93.8949625
  95.0255746  15.6526345  94.1136940  94.6727992  14.1815004  94.1702003
  79.9472651   6.8537454 107.7546442  79.2054387   7.0020089 108.3411073
  79.6265395   7.1145719 106.8913192  96.2296265  12.4819358  95.4236956
  96.7547589  12.8206631  94.6986276  96.1418617  11.5466374  95.2400090
  87.8916313  16.3953432 107.5526832  88.2003440  16.1502579 108.4249532
  88.6891795  16.6000070 107.0645703  87.9136925  18.5491342  99.7832209
  87.4741916  18.0567720 100.4765066  88.6645042  18.0064309  99.5424284
  80.3929264  14.7402882  99.7856837  81.2187284  14.4406654  99.4055481
  80.0423316  13.9710505 100.2346626  85.3610798  14.0929351 101.8554511
  84.7390807  13.4300056 101.5556739  86.0315664  14.1190482 101.1728158
  78.5937869  12.6589209 100.7445771  77.7569778  12.2311383 100.5629772
  78.5661515  12.8521652 101.6816562  84.9224304  12.6433274  95.3312971
  85.0712425  13.3268738  94.6779644  85.7290748  12.6238364  95.8462427
  82.6776937   8.6698452  96.3374040  82.4322979   7.7660782  96.5354250
  82.8472852   8.6715602  95.3953518  88.4219710  15.1381404  92.8024719
  87.8493677  15.7571592  92.3495191  88.9952504  15.6880766  93.3364641
  91.6416970  15.4218555  93.9333301  92.5747643  15.3564116  94.1366176
  91.5540183  16.2574821  93.4747834  94.2704986  14.7384425  90.8937248
  94.1918618  14.4044288  91.7873006  95.0914653  15.2306193  90.8928721
  77.9087366   5.7198557 100.5294703  77.5890150   4.8663865 100.2369077
  77.3620794   5.9347135 101.2852670  81.6867274   8.4360998 104.2464209
  81.9053283   9.3678106 104.2652243  82.0993047   8.0768972 105.0319013
  77.7775626   9.3401468 102.4987824  77.0839097   8.9255421 101.9857779
  78.5248617   9.3822005 101.9021243  79.6912369   9.2719722 100.3753839
  79.6683057   9.3707409  99.4235722  80.0013005  10.1184873 100.6971005
  82.3499746  11.3295877 104.4900454  83.3043000  11.2979820 104.4230385
  82.1512270  10.8686501 105.3050680  82.9399129   9.8996993 107.0571251
  83.7592018  10.3941072 107.0806089  83.2135936   8.9828961 107.0288819
  80.7049975  16.8715497 101.5070652  80.5704443  16.1115898 100.9408650
  80.2882037  17.5956397 101.0399440  91.8408938  12.0552420  90.5147227
  92.5444788  12.2602423  91.1304882  91.1171587  12.6229182  90.7796310
  83.8619101  17.7684814 101.7189094  83.7451485  18.7130246 101.6167784
  83.0411547  17.4658375 102.1074893  93.7495636  12.4934949  92.5645687
  94.5841240  12.0616148  92.3823162  93.5879979  12.3216963  93.4922581
  93.4041528   8.9967063  93.9302026  93.3490332   8.8311334  92.9890470
  92.7787583   9.7043096  94.0864216  78.1934043   4.2335127 107.7563448
  78.8392906   3.7234081 108.2450674  77.9851194   4.9703809 108.3306874
  84.8873615  18.4213076 104.9345023  85.7900862  18.4536686 105.2511518
  84.6610985  17.4913527 104.9491358  86.6427217  17.1744062 101.5955101
  85.6922848  17.1745924 101.4819474  86.9459703  16.4276797 101.0791136
 102.3779911  23.0104601 102.6600864 103.0158321  22.8911348 101.9564204
 102.2600754  23.9585445 102.7188816  99.1869617  22.9632029 102.5962388
  98.8488129  22.8473093 101.7082923 100.0559385  22.5623194 102.5763394
  95.0456433  24.8167505  98.5859279  94.4821298  24.7257442  97.8175567
  94.9308828  23.9967410  99.0661772  92.5920865  26.3118697 101.4243500
  93.3842157  25.9709521 101.0089799  92.8317515  26.4213672 102.3445653
 100.6255991  28.4838473  93.8973744  99.9743971  29.0692553  93.5107758
 101.4200354  29.0144668  93.9568782  94.5511619  25.5727610  94.2960879
  95.3242495  25.0256597  94.1573754  94.9037017  26.4371859  94.5075340
  96.3896661  26.9003992 107.5027778  96.0986527  27.8049623 107.3874444
  97.0253646  26.9420520 108.2171847  97.3152868  24.2780841 104.0929137
  97.9116440  24.0536863 103.3786100  97.3727840  23.5365586 104.6954585
  96.8877896  21.7320276  91.9279328  97.1403417  21.2101797  91.1662791
  95.9502455  21.5686422  92.0306012 101.9321179  20.7356054  99.7354072
 102.7184268  20.3175478  99.3844489 102.1959884  21.6402147  99.9035720
 102.1031257  26.1728905  94.4342728 101.4677090  26.2463531  95.1463633
 101.7728663  26.7622504  93.7561808  96.6074185  23.6348382  94.1303703
  96.4910443  22.9593285  94.7984788  96.7176445  23.1480756  93.3135856
  98.9505726  23.0958529  97.8350393  98.5863933  22.5689150  98.5463314
  99.8072842  22.7056998  97.6616878  98.5911213  18.1248429  92.8311741
  98.7585615  18.9928665  93.1982212  98.4008382  18.2875711  91.9073030
 101.3486546  26.5865408 104.4977572 101.0487269  27.4890447 104.3893379
 101.0037606  26.3197591 105.3498724  94.7999028  23.0379205 100.5314276
  93.8749524  22.9055419 100.7391968  95.0483441  23.8173424 101.0284218
  98.5700434  20.5806086  93.8158408  98.4500059  21.0263137  94.6543888
  97.8753022  20.9291404  93.2571946  92.1607839  22.6812478 101.3658065
  92.2900220  22.9346957 102.2797477  91.4805290  23.2740186 101.0462720
  96.3307326  33.3509728  97.4648539  96.2531356  34.3017553  97.5437020
  95.7268970  33.0055601  98.1223466 104.2685500  21.0527559  94.6438742
 105.1803356  21.2854946  94.4686440 103.7595147  21.6364604  94.0813821
  97.0770928  23.3323047 109.6827873  97.8185612  23.8708091 109.4062697
  96.3707914  23.9589336 109.8399425  98.9057338  20.4124794 105.6533592
  99.7518533  20.8364208 105.7968241  98.8455975  19.7558418 106.3472155
 102.8755082  26.0353378 102.0352323 102.2463945  26.1999092 101.3328391
 102.4880744  26.4494988 102.8063288 106.7544314  26.9707816  99.3896687
 106.0695352  27.3506717  98.8393721 106.8388164  27.5803142 100.1228635
  98.4283044  25.7727786  99.3002409  98.8921390  26.0515489  98.5107031
  98.1639842  24.8711231  99.1175499  95.3207125  25.3199268 102.2382172
  95.8908482  25.7486536 101.5999656  95.9115237  25.0381852 102.9366357
  97.3651930  21.8950938  96.1091974  98.0675974  22.3471982  96.5765900
  97.0332559  21.2534757  96.7371867  91.1077264  20.1534491 101.4109107
  90.3176318  20.4092020 100.9349218  91.5988512  20.9682829 101.5161148
 105.1241074  27.4939730 104.1614388 105.9458518  27.0919918 103.8797070
 105.1203477  27.3907964 105.1130504  93.0592010  20.5179070  98.3692584
  92.2623173  20.6297765  98.8876080  92.8317602  20.8565723  97.5033474
  98.8897677  27.0423774 106.3175099  98.9542110  27.5044181 107.1533270
  98.1808601  26.4121138 106.4457408  89.3914967  20.4064982 103.8424098
  89.6423006  21.2911991 104.1081674  89.9274516  20.2269583 103.0699190
  98.6045695  28.7091881  96.1854079  98.4691370  29.5543417  96.6138927
  99.1455507  28.9111159  95.4220013  92.0575092  26.2267319  96.7582004
  92.5699613  27.0210569  96.9087569  92.7097805  25.5293610  96.6915605
  93.8669977  29.3433075  98.8404757  94.0436605  30.2651040  98.6525741
  94.6626811  29.0291495  99.2699137  93.1522334  21.3897707 108.7166920
  93.0375849  20.4882964 109.0174019  92.2966851  21.6361404 108.3651737
 100.2314171  29.3315448 110.3154421  99.7878026  28.5451826 109.9975326
 100.8931385  29.5194598 109.6498312  94.9901293  30.8611249 104.8415100
  95.5408718  30.7328312 104.0692093  94.1512768  31.1606138 104.4909992
  98.7868464  27.1262377 109.1859331  99.3196800  26.3650665 108.9558639
  98.2582545  26.8336029 109.9283485  90.0224009  24.5555973  97.5341575
  90.8599231  24.9652982  97.3175282  90.2002277  23.6155416  97.5041768
 101.9188441  22.2231054  93.2225408 101.4035065  22.9935659  93.4613795
 101.6465750  21.5496190  93.8458469  99.5035552  17.0680755  98.2810646
  98.6477149  16.6787605  98.1016285  99.9162504  17.1472716  97.4210431
  97.2777585  14.6865828 101.6868387  98.1430582  14.4908636 101.3274277
  97.3455094  14.4576180 102.6137744 106.8922715  24.9763409  95.1578581
 106.1152158  24.6374568  94.7133743 107.5714196  24.9816032  94.4833546
 101.7074744  20.0958146  95.0485189 101.4024880  20.4104295  95.8995332
 102.6605187  20.1739566  95.0912522 100.1521176  26.2548369  96.6978143
  99.6242538  25.5201129  96.3851380  99.6508679  27.0323046  96.4518111
 105.1314022  24.4497390 101.8145189 104.4737697  25.1396651 101.9025318
 105.9354421  24.8393822 102.1579175  94.8839904  16.9168036  99.0584754
  95.4583656  16.6943217  98.3257947  95.4710886  16.9856730  99.8113355
 103.9419481  22.8041763  99.8649131 104.4551363  23.4371754 100.3670840
 104.5920705  22.2042958  99.4992491  95.2109491  18.9472497  93.0780639
  94.3746803  19.2847183  93.3989914  95.0714261  18.8121477  92.1407776
  97.1862572  13.7909285  97.7859824  96.5326984  13.4758302  97.1616438
  97.1443046  13.1685025  98.5119647  98.2973776  24.0728580  89.7013116
  97.3900838  23.8417833  89.9004265  98.7944808  23.2766199  89.8887097
 101.2041855  32.7826087  92.6209802 100.5303554  33.0857784  93.2294760
 101.5907677  33.5855167  92.2715259 100.4200312  20.2791218 102.1107471
  99.5022873  20.5006165 101.9529159 100.8360456  20.3537529 101.2519179
 101.2035360  21.6782634  97.2410151 101.9507179  22.1904031  96.9317274
 101.4726949  21.3566687  98.1014545  99.4762010  24.1741175  94.2237106
  98.5673229  23.8900207  94.3209576  99.5057094  24.5940253  93.3640413
 104.7081277  27.7847764  97.9928273 104.2543604  26.9438674  98.0493464
 104.0775244  28.4209162  98.3303054 103.6514197  18.7139750  99.2228941
 102.9136954  18.2017136  99.5539183 103.9040970  18.2740132  98.4112218
 103.1514217  29.6224261  98.9278091 103.4437191  30.1829318  98.2090457
 103.6612837  29.9152822  99.6831251  90.0450180  21.8946689  98.2052308
  89.8474580  21.3016049  97.4803375  89.4896844  21.5898899  98.9228247
  98.0246904  21.7869795 100.3246901  98.0795514  20.8343632 100.2489378
  97.2138106  21.9429234 100.8088200  99.1738098  25.7149918  91.5625184
  98.7357528  24.9985777  91.1030822  99.9148539  25.9426033  91.0010276
  95.9639264  20.4046855  98.0837280  95.1507129  20.7041025  98.4902472
  96.4598258  20.0102544  98.8011762  98.1147842  30.4004612 100.0171545
  98.0724021  30.6265458  99.0880077  99.0310541  30.1667986 100.1657346
 107.2911212  23.9907115  97.6201503 107.1529111  24.1808711  96.6922692
 106.9347431  24.7526498  98.0769554  95.4553339  17.9765210 103.6998515
  96.0952718  17.8353970 103.0021478  94.6230869  17.6899724 103.3237117
  96.2313642  27.2767641  99.8133507  97.0254241  26.7817961  99.6116082
  95.5205335  26.7485504  99.4501213 101.0508487  29.6585736 104.1645875
 101.1045509  30.2276673 104.9323591 100.1823268  29.8287621 103.7999912
  92.5396406  21.4210723  95.8893260  91.6093994  21.3595178  96.1063222
  92.6353878  20.8986675  95.0929901  92.4581955  17.9465535  98.4771502
  92.7188772  18.8610869  98.3680662  93.2799127  17.4789978  98.6268115
  93.9306880  19.3603293 105.6470326  94.6029934  19.1520655 104.9982975
  93.1036667  19.1625379 105.2075559 100.0096587  23.8245998 105.7232807
 100.9388647  23.9757158 105.5501774  99.5887617  23.9130019 104.8681453
  98.8084918  27.8496663 103.4931345  98.6696004  27.4815447 104.3657283
  98.0199515  28.3644302 103.3215302  99.4033070  32.9505759  94.8356881
  99.5784826  32.4793802  95.6502504  98.7165858  33.5771526  95.0638142
 100.3590134  27.2278266 100.8820182 100.0239966  27.1879035 101.7777832
  99.8594079  26.5622981 100.4090593  94.3334378  22.6345896 106.4072763
  94.1954176  21.9026134 107.0084303  95.2439301  22.5454796 106.1256951
 103.2949325  24.5734300  91.1557242 102.6778496  23.8481128  91.0590295
 102.8265814  25.3343660  90.8124316  96.9616678  22.3465855 105.8956443
  97.6716297  21.7059047 105.8543062  96.9185986  22.5978750 106.8182624
  95.6745612  19.3331073 107.7152083  95.1382969  18.8821811 108.3673679
  95.0862321  19.4676982 106.9722547  93.9694156  36.0995122 101.6096741
  94.2090754  36.7313646 102.2875760  93.1263352  35.7483162 101.8962100
  95.0847871  18.7919724  90.2778546  94.2077338  18.6708525  89.9140793
  95.5605624  18.0005802  90.0257435  86.6050011  23.5796884 100.3720053
  87.2921051  23.2658614  99.7841069  86.4498140  24.4838249 100.0987305
  91.4084733  18.4687080 104.8005077  91.3242922  17.8612750 104.0655487
  90.5867440  18.9596099 104.8014573  98.4822018  31.9074245 104.0138245
  98.4092189  32.7129216 104.5257550  98.0399411  32.1066210 103.1886267
  98.2711797  31.1446015  97.5241067  97.4879319  31.6867695  97.6179291
  98.9704542  31.6619994  97.9235308 101.5808447  16.9540644 100.1675272
 102.0777147  16.2010606  99.8476342 100.8095429  16.9904961  99.6018481
 100.9420701  31.8061079 106.1696404 101.6548673  32.4408543 106.0972305
 100.4510730  31.9024945 105.3536406 102.6638228  25.7112331  97.7413696
 101.7294507  25.8313794  97.5718400 102.8414897  24.8084798  97.4773705
  98.1643416  19.0958027  99.8946957  97.7941204  18.5429067 100.5827862
  98.6602509  18.4916160  99.3421957 106.0510779  21.5529650  98.2763730
 106.5171232  22.3857642  98.2024032 106.5018280  21.0874632  98.9808988
  95.9932615  29.5555522 106.9901975  96.6942074  30.1892005 107.1431369
  95.5227730  29.8970254 106.2297614 104.1187010  27.8973472  95.2749882
 104.3946854  27.7830066  96.1843756 103.2491509  27.4990957  95.2362055
 100.7541075  32.1459823  98.9182695 100.9363469  31.3281479  99.3810448
 101.5774061  32.3627515  98.4807585 101.0883240  31.0728008  96.1797744
 101.6171006  30.5620462  95.5667906 101.3511460  30.7570538  97.0443277
  91.5900333  29.0891877 103.9233077  92.1753770  28.3435565 104.0560982
  91.3925171  29.3995834 104.8069741  94.4438988  32.1243124  98.9395520
  93.7749363  32.6089252  98.4559560  94.3051858  32.3712345  99.8538898
  86.1817987  21.6597477 102.6437521  86.2202087  21.1261068 103.4374639
  85.6758280  21.1332683 102.0248498  98.5844257  34.1586868 105.5378178
  99.1362565  34.3218489 106.3027263  98.9250450  34.7491306 104.8658203
  93.5608750  16.5062018 106.1400063  93.6250076  17.3676849 105.7277461
  93.4975870  15.8936019 105.4072421  89.8126565  20.3861579  95.7191452
  90.1080006  19.4772258  95.6658506  88.9114601  20.3649319  95.3972454
 101.7212644  32.1068843 102.5241860 101.5963783  31.3058583 102.0152806
 102.3791735  32.6015037 102.0355830  93.3420812  18.4617576 101.7019000
  92.6207398  19.0753544 101.5626474  94.1314068  18.9975341 101.6235646
 103.7847552  29.9077864 104.1521410 102.8377888  29.7883215 104.0799737
 104.1330325  29.0200362 104.2347672  91.5414407  18.0675677  95.8430777
  91.2127113  17.1873056  95.6605883  91.8953777  18.0123346  96.7307166
 100.7893986  29.7030580 100.3525763 100.6418948  28.7747287 100.5333333
 101.6147479  29.7250670  99.8682838  94.6556230  18.3548647  96.2106255
  94.9952302  18.8834568  95.4884863  95.1028350  18.6929053  96.9864821
 104.3928107  30.5259139 101.4390635 105.3174655  30.3202000 101.3015086
 104.2243411  30.2775540 102.3479977  96.6424377  16.8523268  94.4099547
  97.3632739  17.2304521  93.9063264  96.0189681  17.5712145  94.5134525
 100.7855500  17.5568417  95.3457880 101.0019114  18.4393055  95.0446708
 100.3049567  17.1654631  94.6163522  95.5254721  20.5154131 101.9228624
  95.3799302  20.8294434 102.8152906  95.0479925  21.1339031 101.3699523
  97.3851104  17.5056679 101.9709514  97.3712673  16.6097772 101.6341812
  98.1023532  17.5127342 102.6047800  99.2377235  17.9394019 104.0162641
  98.9795013  18.8611089 104.0146972  98.7062275  17.5424453 104.7063106
 104.1823424  31.0444806  96.7952727 104.3560301  30.4791228  96.0426579
 104.6752315  31.8445701  96.6132217  90.0000383  23.0559475 104.8616286
  89.4553851  23.8319283 104.9936560  90.8779733  23.4030280 104.7035407
  96.7888000  16.3871059  97.2397084  96.9103911  15.4587705  97.4387972
  96.4990042  16.4009745  96.3275400  99.6579190  14.0725969 100.3763804
  99.6800887  14.1365302  99.4215783 100.0747249  13.2330478 100.5704310
 110.0362815  23.8081229  98.4143027 110.4793961  23.0588554  98.0162150
 109.1589325  23.7991365  98.0316759 105.1698596  30.3611570  93.8949625
 105.8649501  30.9818263  94.1136940 105.5121746  29.5106922  94.1702003
  90.7866405  22.1829371 107.7546442  90.0448141  22.3312007 108.3411073
  90.4659149  22.4437637 106.8913192 107.0690019  27.8111276  95.4236956
 107.5941343  28.1498549  94.6986276 106.9812372  26.8758291  95.2400090
  98.7310068  31.7245350 107.5526832  99.0397194  31.4794496 108.4249532
  99.5285550  31.9291988 107.0645703  98.7530680  33.8783259  99.7832209
  98.3135670  33.3859638 100.4765066  99.5038797  33.3356227  99.5424284
  91.2323019  30.0694800  99.7856837  92.0581039  29.7698572  99.4055481
  90.8817071  29.3002422 100.2346626  96.2004552  29.4221268 101.8554511
  95.5784561  28.7591973 101.5556739  96.8709419  29.4482400 101.1728158
  89.4331624  27.9881127 100.7445771  88.5963532  27.5603301 100.5629772
  89.4055269  28.1813570 101.6816562  95.7618059  27.9725192  95.3312971
  95.9106179  28.6560656  94.6779644  96.5684502  27.9530282  95.8462427
  93.5170692  23.9990369  96.3374040  93.2716734  23.0952699  96.5354250
  93.6866606  24.0007520  95.3953518  92.7866339  19.7318727  93.8360202
  92.0935584  19.8063082  93.1800238  92.5418091  18.9679070  94.3581719
  99.2613464  30.4673322  92.8024719  98.6887432  31.0863509  92.3495191
  99.8346258  31.0172684  93.3364641 102.4810724  30.7510472  93.9333301
 103.4141397  30.6856034  94.1366176 102.3933937  31.5866739  93.4747834
 105.1098741  30.0676343  90.8937248 105.0312372  29.7336206  91.7873006
 105.9308408  30.5598110  90.8928721  99.6460263  21.8034135  90.1440771
 100.5919368  21.6740343  90.2129189  99.2674508  21.0648797  90.6210199
  97.8303180  19.7284111  90.0795656  96.9234636  19.4317224  90.1558370
  98.1079161  19.4313929  89.2129943  88.7481121  21.0490475 100.5294703
  88.4283905  20.1955783 100.2369077  88.2014549  21.2639053 101.2852670
  92.5261028  23.7652916 104.2464209  92.7447038  24.6970023 104.2652243
  92.9386802  23.4060890 105.0319013  99.4465246  14.2721001  96.2339898
  98.6365974  13.9268086  96.6095144 100.1349663  13.9628545  96.8227509
 101.3755794  13.3499048  97.8564194 101.9286833  13.7694501  98.5154217
 101.6125881  12.4234796  97.8987150  96.6001965  16.5871046  90.2207636
  97.4621129  16.9125945  90.4803453  96.7852309  15.8002542  89.7080701
  88.6169381  24.6693386 102.4987824  87.9232852  24.2547339 101.9857779
  89.3642372  24.7113923 101.9021243 104.7534601  15.4599573  97.3642859
 104.1733270  16.1184377  96.9820911 104.4870534  14.6376917  96.9530276
  90.5306123  24.6011640 100.3753839  90.5076811  24.6999327  99.4235722
  90.8406760  25.4476791 100.6971005  93.1893501  26.6587795 104.4900454
  94.1436754  26.6271737 104.4230385  92.9906025  26.1978419 105.3050680
  93.7792883  25.2288911 107.0571251  94.5985772  25.7232990 107.0806089
  94.0529691  24.3120879 107.0288819 103.5359479  17.6199663  96.4199207
 102.6485334  17.9049314  96.2019402 103.9513468  17.4593427  95.5726484
  91.5443730  32.2007414 101.5070652  91.4098198  31.4407815 100.9408650
  91.1275792  32.9248314 101.0399440 102.6802693  27.3844338  90.5147227
 103.3838543  27.5894340  91.1304882 101.9565341  27.9521100  90.7796310
 103.5100503  23.1354199  96.6349497 103.4535704  23.5922751  95.7957129
 104.0628845  22.3744884  96.4572340 107.3205309  18.9243931  97.4599616
 107.0642243  18.5240567  98.2907824 106.6958177  19.6387725  97.3349756
  94.7012856  33.0976731 101.7189094  94.5845240  34.0422164 101.6167784
  93.8805302  32.7950293 102.1074893 104.5889390  27.8226867  92.5645687
 105.4234994  27.3908066  92.3823162 104.4273733  27.6508881  93.4922581
 104.2435282  24.3258980  93.9302026 104.1884086  24.1603252  92.9890470
 103.6181338  25.0335013  94.0864216  89.0327797  19.5627045 107.7563448
  89.6786661  19.0525999 108.2450674  88.8244948  20.2995726 108.3306874
  97.5531408  13.8267089  93.5087345  97.5410078  14.7708929  93.6655615
  98.4454830  13.6437235  93.2146806  95.7267370  33.7504993 104.9345023
  96.6294616  33.7828604 105.2511518  95.5004740  32.8205444 104.9491358
  97.4820972  32.5035980 101.5955101  96.5316603  32.5037841 101.4819474
  97.7853458  31.7568714 101.0791136 113.2173665  38.3396518 102.6600864
 113.8552075  38.2203266 101.9564204 113.0994508  39.2877362 102.7188816
 110.0263372  38.2923946 102.5962388 109.6881883  38.1765011 101.7082923
 110.8953140  37.8915111 102.5763394 105.8850187  40.1459423  98.5859279
 105.3215052  40.0549360  97.8175567 105.7702582  39.3259327  99.0661772
 103.4314619  41.6410614 101.4243500 104.2235911  41.3001439 101.0089799
 103.6711269  41.7505589 102.3445653 111.4649746  43.8130390  93.8973744
 110.8137726  44.3984471  93.5107758 112.2594109  44.3436585  93.9568782
 105.3905373  40.9019528  94.2960879 106.1636249  40.3548515  94.1573754
 105.7430772  41.7663777  94.5075340 107.2290416  42.2295910 107.5027778
 106.9380282  43.1341541 107.3874444 107.8647400  42.2712437 108.2171847
 108.1546622  39.6072758 104.0929137 108.7510195  39.3828781 103.3786100
 108.2121594  38.8657504 104.6954585 107.7271651  37.0612194  91.9279328
 107.9797172  36.5393715  91.1662791 106.7896210  36.8978339  92.0306012
 112.7714934  36.0647972  99.7354072 113.5578023  35.6467395  99.3844489
 113.0353638  36.9694064  99.9035720 112.9425011  41.5020822  94.4342728
 112.3070844  41.5755449  95.1463633 112.6122417  42.0914421  93.7561808
 107.4467940  38.9640300  94.1303703 107.3304198  38.2885203  94.7984788
 107.5570200  38.4772674  93.3135856 109.7899481  38.4250447  97.8350393
 109.4257688  37.8981068  98.5463314 110.6466596  38.0348916  97.6616878
 109.4304968  33.4540346  92.8311741 109.5979370  34.3220583  93.1982212
 109.2402137  33.6167628  91.9073030 112.1880301  41.9157325 104.4977572
 111.8881024  42.8182364 104.3893379 111.8431360  41.6489509 105.3498724
 105.6392782  38.3671122 100.5314276 104.7143279  38.2347336 100.7391968
 105.8877195  39.1465341 101.0284218 109.4094188  35.9098004  93.8158408
 109.2893814  36.3555055  94.6543888 108.7146777  36.2583322  93.2571946
 103.0001593  38.0104396 101.3658065 103.1293974  38.2638875 102.2797477
 102.3199045  38.6032104 101.0462720 107.1701081  48.6801646  97.4648539
 107.0925110  49.6309471  97.5437020 106.5662724  48.3347518  98.1223466
 115.1079255  36.3819477  94.6438742 116.0197111  36.6146864  94.4686440
 114.5988902  36.9656521  94.0813821 107.9164683  38.6614965 109.6827873
 108.6579367  39.2000008 109.4062697 107.2101668  39.2881253 109.8399425
 109.7451092  35.7416712 105.6533592 110.5912287  36.1656125 105.7968241
 109.6849730  35.0850336 106.3472155 113.7148837  41.3645296 102.0352323
 113.0857699  41.5291010 101.3328391 113.3274499  41.7786905 102.8063288
 117.5938069  42.2999733  99.3896687 116.9089107  42.6798635  98.8393721
 117.6781918  42.9095060 100.1228635 109.2676799  41.1019704  99.3002409
 109.7315144  41.3807407  98.5107031 109.0033597  40.2003148  99.1175499
 106.1600880  40.6491185 102.2382172 106.7302237  41.0778454 101.5999656
 106.7508992  40.3673770 102.9366357 108.2045685  37.2242856  96.1091974
 108.9069728  37.6763900  96.5765900 107.8726313  36.5826675  96.7371867
 101.9471019  35.4826409 101.4109107 101.1570073  35.7383937 100.9349218
 102.4382266  36.2974747 101.5161148 115.9634828  42.8231648 104.1614388
 116.7852272  42.4211835 103.8797070 115.9597231  42.7199882 105.1130504
 103.8985764  35.8470988  98.3692584 103.1016927  35.9589682  98.8876080
 103.6711356  36.1857640  97.5033474 109.7291432  42.3715691 106.3175099
 109.7935864  42.8336098 107.1533270 109.0202356  41.7413056 106.4457408
 100.2308722  35.7356899 103.8424098 100.4816760  36.6203909 104.1081674
 100.7668270  35.5561501 103.0699190 109.4439449  44.0383799  96.1854079
 109.3085124  44.8835334  96.6138927 109.9849262  44.2403076  95.4220013
 102.8968847  41.5559237  96.7582004 103.4093367  42.3502487  96.9087569
 103.5491560  40.8585527  96.6915605 104.7063732  44.6724993  98.8404757
 104.8830360  45.5942958  98.6525741 105.5020565  44.3583412  99.2699137
 103.9916088  36.7189625 108.7166920 103.8769603  35.8174882 109.0174019
 103.1360606  36.9653322 108.3651737 111.0707926  44.6607365 110.3154421
 110.6271780  43.8743744 109.9975326 111.7325139  44.8486516 109.6498312
 105.8295047  46.1903167 104.8415100 106.3802472  46.0620230 104.0692093
 104.9906523  46.4898056 104.4909992 109.6262218  42.4554295 109.1859331
 110.1590555  41.6942583 108.9558639 109.0976299  42.1627946 109.9283485
 100.8617764  39.8847891  97.5341575 101.6992986  40.2944899  97.3175282
 101.0396031  38.9447333  97.5041768 112.7582196  37.5522972  93.2225408
 112.2428819  38.3227576  93.4613795 112.4859504  36.8788108  93.8458469
 110.3429307  32.3972672  98.2810646 109.4870903  32.0079523  98.1016285
 110.7556259  32.4764633  97.4210431 108.1171339  30.0157745 101.6868387
 108.9824336  29.8200554 101.3274277 108.1848848  29.7868097 102.6137744
 117.7316470  40.3055326  95.1578581 116.9545913  39.9666486  94.7133743
 118.4107951  40.3107950  94.4833546 112.5468499  35.4250064  95.0485189
 112.2418634  35.7396213  95.8995332 113.4998941  35.5031484  95.0912522
 110.9914931  41.5840287  96.6978143 110.4636292  40.8493047  96.3851380
 110.4902433  42.3614963  96.4518111 115.9707777  39.7789308 101.8145189
 115.3131451  40.4688569 101.9025318 116.7748176  40.1685740 102.1579175
 105.7233658  32.2459953  99.0584754 106.2977410  32.0235135  98.3257947
 106.3104641  32.3148648  99.8113355 114.7813236  38.1333680  99.8649131
 115.2945117  38.7663672 100.3670840 115.4314459  37.5334876  99.4992491
 106.0503245  34.2764414  93.0780639 105.2140558  34.6139101  93.3989914
 105.9108015  34.1413394  92.1407776 108.0256326  29.1201202  97.7859824
 107.3720738  28.8050219  97.1616438 107.9836800  28.4976943  98.5119647
 109.1367531  39.4020497  89.7013116 108.2294593  39.1709751  89.9004265
 109.6338563  38.6058117  89.8887097 112.0435610  48.1118005  92.6209802
 111.3697309  48.4149701  93.2294760 112.4301432  48.9147085  92.2715259
 111.2594066  35.6083136 102.1107471 110.3416628  35.8298083 101.9529159
 111.6754210  35.6829446 101.2519179 112.0429114  37.0074552  97.2410151
 112.7900933  37.5195949  96.9317274 112.3120704  36.6858604  98.1014545
 110.3155764  39.5033092  94.2237106 109.4066984  39.2192125  94.3209576
 110.3450848  39.9232171  93.3640413 115.5475032  43.1139682  97.9928273
 115.0937359  42.2730592  98.0493464 114.9168998  43.7501080  98.3303054
 114.4907951  34.0431668  99.2228941 113.7530708  33.5309054  99.5539183
 114.7434725  33.6032049  98.4112218 113.9907971  44.9516178  98.9278091
 114.2830945  45.5121236  98.2090457 114.5006592  45.2444739  99.6831251
 100.8843935  37.2238606  98.2052308 100.6868335  36.6307967  97.4803375
 100.3290599  36.9190817  98.9228247 108.8640658  37.1161713 100.3246901
 108.9189268  36.1635549 100.2489378 108.0531860  37.2721152 100.8088200
 110.0131852  41.0441836  91.5625184 109.5751282  40.3277695  91.1030822
 110.7542293  41.2717951  91.0010276 106.8033018  35.7338773  98.0837280
 105.9900884  36.0332943  98.4902472 107.2992013  35.3394461  98.8011762
 108.9541596  45.7296530 100.0171545 108.9117775  45.9557376  99.0880077
 109.8704295  45.4959904 100.1657346 118.1304967  39.3199033  97.6201503
 117.9922866  39.5100629  96.6922692 117.7741186  40.0818416  98.0769554
 106.2947093  33.3057128 103.6998515 106.9346472  33.1645887 103.0021478
 105.4624624  33.0191641 103.3237117 107.0707397  42.6059559  99.8133507
 107.8647995  42.1109879  99.6116082 106.3599089  42.0777422  99.4501213
 111.8902241  44.9877654 104.1645875 111.9439264  45.5568590 104.9323591
 111.0217023  45.1579539 103.7999912 103.3790160  36.7502640  95.8893260
 102.4487749  36.6887096  96.1063222 103.4747632  36.2278593  95.0929901
 103.2975710  33.2757453  98.4771502 103.5582527  34.1902786  98.3680662
 104.1192882  32.8081896  98.6268115 104.7700635  34.6895210 105.6470326
 105.4423688  34.4812572 104.9982975 103.9430421  34.4917296 105.2075559
 110.8490341  39.1537916 105.7232807 111.7782401  39.3049076 105.5501774
 110.4281371  39.2421937 104.8681453 109.6478673  43.1788581 103.4931345
 109.5089759  42.8107365 104.3657283 108.8593269  43.6936220 103.3215302
 110.2426825  48.2797677  94.8356881 110.4178581  47.8085720  95.6502504
 109.5559613  48.9063443  95.0638142 111.1983888  42.5570183 100.8820182
 110.8633721  42.5170953 101.7777832 110.6987834  41.8914899 100.4090593
 105.1728132  37.9637813 106.4072763 105.0347930  37.2318052 107.0084303
 106.0833056  37.8746713 106.1256951 114.1343080  39.9026218  91.1557242
 113.5172250  39.1773046  91.0590295 113.6659568  40.6635578  90.8124316
 107.8010433  37.6757773 105.8956443 108.5110051  37.0350965 105.8543062
 107.7579741  37.9270667 106.8182624 106.5139367  34.6622990 107.7152083
 105.9776724  34.2113729 108.3673679 105.9256075  34.7968899 106.9722547
 104.8087910  51.4287040 101.6096741 105.0484508  52.0605564 102.2875760
 103.9657107  51.0775080 101.8962100 105.9241626  34.1211642  90.2778546
 105.0471092  34.0000443  89.9140793 106.3999379  33.3297720  90.0257435
  97.4443766  38.9088802 100.3720053  98.1314806  38.5950532  99.7841069
  97.2891895  39.8130166 100.0987305 102.2478488  33.7978998 104.8005077
 102.1636677  33.1904668 104.0655487 101.4261194  34.2888016 104.8014573
 109.3215772  47.2366162 104.0138245 109.2485944  48.0421134 104.5257550
 108.8793165  47.4358128 103.1886267 109.1105552  46.4737932  97.5241067
 108.3273074  47.0159612  97.6179291 109.8098297  46.9911912  97.9235308
 112.4202202  32.2832562 100.1675272 112.9170901  31.5302524  99.8476342
 111.6489183  32.3196878  99.6018481 111.7814456  47.1352996 106.1696404
 112.4942428  47.7700461 106.0972305 111.2904484  47.2316862 105.3536406
 113.5031983  41.0404249  97.7413696 112.5688261  41.1605711  97.5718400
 113.6808651  40.1376716  97.4773705 109.0037171  34.4249945  99.8946957
 108.6334958  33.8720985 100.5827862 109.4996263  33.8208078  99.3421957
 116.8904534  36.8821568  98.2763730 117.3564986  37.7149560  98.2024032
 117.3412034  36.4166550  98.9808988 106.8326369  44.8847440 106.9901975
 107.5335829  45.5183923 107.1431369 106.3621484  45.2262171 106.2297614
 114.9580765  43.2265389  95.2749882 115.2340609  43.1121984  96.1843756
 114.0885264  42.8282874  95.2362055 111.5934829  47.4751740  98.9182695
 111.7757224  46.6573396  99.3810448 112.4167815  47.6919433  98.4807585
 111.9276994  46.4019925  96.1797744 112.4564761  45.8912380  95.5667906
 112.1905214  46.0862456  97.0443277 102.4294087  44.4183795 103.9233077
 103.0147524  43.6727483 104.0560982 102.2318926  44.7287751 104.8069741
 105.2832742  47.4535042  98.9395520 104.6143118  47.9381170  98.4559560
 105.1445612  47.7004263  99.8538898  97.0211742  36.9889395 102.6437521
  97.0595841  36.4552986 103.4374639  96.5152035  36.4624600 102.0248498
 109.4238011  49.4878786 105.5378178 109.9756319  49.6510407 106.3027263
 109.7644204  50.0783223 104.8658203 104.4002504  31.8353935 106.1400063
 104.4643831  32.6968766 105.7277461 104.3369624  31.2227937 105.4072421
 100.6520320  35.7153497  95.7191452 100.9473761  34.8064176  95.6658506
  99.7508355  35.6941237  95.3972454 112.5606398  47.4360761 102.5241860
 112.4357538  46.6350501 102.0152806 113.2185489  47.9306955 102.0355830
 104.1814567  33.7909494 101.7019000 103.4601152  34.4045461 101.5626474
 104.9707822  34.3267258 101.6235646 114.6241307  45.2369781 104.1521410
 113.6771642  45.1175132 104.0799737 114.9724080  44.3492279 104.2347672
 102.3808161  33.3967595  95.8430777 102.0520867  32.5164974  95.6605883
 102.7347532  33.3415263  96.7307166 111.6287740  45.0322497 100.3525763
 111.4812702  44.1039205 100.5333333 112.4541233  45.0542588  99.8682838
 105.4949984  33.6840565  96.2106255 105.8346057  34.2126486  95.4884863
 105.9422105  34.0220971  96.9864821 115.2321862  45.8551056 101.4390635
 116.1568409  45.6493918 101.3015086 115.0637165  45.6067457 102.3479977
 107.4818131  32.1815186  94.4099547 108.2026494  32.5596439  93.9063264
 106.8583436  32.9004063  94.5134525 111.6249254  32.8860335  95.3457880
 111.8412869  33.7684973  95.0446708 111.1443321  32.4946549  94.6163522
 106.3648476  35.8446048 101.9228624 106.2193056  36.1586351 102.8152906
 105.8873679  36.4630949 101.3699523 108.2244859  32.8348596 101.9709514
 108.2106427  31.9389690 101.6341812 108.9417287  32.8419260 102.6047800
 110.0770989  33.2685937 104.0162641 109.8188767  34.1903007 104.0146972
 109.5456030  32.8716371 104.7063106 115.0217178  46.3736724  96.7952727
 115.1954056  45.8083146  96.0426579 115.5146069  47.1737619  96.6132217
 100.8394138  38.3851393 104.8616286 100.2947606  39.1611201 104.9936560
 101.7173488  38.7322197 104.7035407 107.6281754  31.7162977  97.2397084
 107.7497666  30.7879623  97.4387972 107.3383797  31.7301663  96.3275400
 110.4972945  29.4017887 100.3763804 110.5194642  29.4657220  99.4215783
 110.9141004  28.5622396 100.5704310 120.8756569  39.1373147  98.4143027
 121.3187715  38.3880472  98.0162150 119.9983079  39.1283283  98.0316759
 116.0092351  45.6903488  93.8949625 116.7043255  46.3110181  94.1136940
 116.3515501  44.8398839  94.1702003 101.6260160  37.5121289 107.7546442
 100.8841896  37.6603924 108.3411073 101.3052904  37.7729555 106.8913192
 117.9083774  43.1403194  95.4236956 118.4335098  43.4790466  94.6986276
 117.8206126  42.2050209  95.2400090 109.5703822  47.0537267 107.5526832
 109.8790949  46.8086414 108.4249532 110.3679304  47.2583906 107.0645703
 109.5924434  49.2075177  99.7832209 109.1529425  48.7151556 100.4765066
 110.3432551  48.6648145  99.5424284 102.0716773  45.3986718  99.7856837
 102.8974793  45.0990490  99.4055481 101.7210825  44.6294340 100.2346626
 107.0398307  44.7513186 101.8554511 106.4178316  44.0883891 101.5556739
 107.7103173  44.7774318 101.1728158 100.2725378  43.3173044 100.7445771
  99.4357287  42.8895219 100.5629772 100.2449024  43.5105488 101.6816562
 106.6011813  43.3017109  95.3312971 106.7499934  43.9852574  94.6779644
 107.4078257  43.2822199  95.8462427 104.3564446  39.3282287  96.3374040
 104.1110488  38.4244617  96.5354250 104.5260361  39.3299437  95.3953518
 103.6260094  35.0610645  93.8360202 102.9329339  35.1354999  93.1800238
 103.3811846  34.2970988  94.3581719 110.1007219  45.7965240  92.8024719
 109.5281186  46.4155427  92.3495191 110.6740013  46.3464601  93.3364641
 113.3204479  46.0802390  93.9333301 114.2535152  46.0147952  94.1366176
 113.2327692  46.9158657  93.4747834 115.9492495  45.3968260  90.8937248
 115.8706127  45.0628124  91.7873006 116.7702162  45.8890028  90.8928721
 110.4854017  37.1326052  90.1440771 111.4313122  37.0032261  90.2129189
 110.1068262  36.3940714  90.6210199 108.6696935  35.0576029  90.0795656
 107.7628390  34.7609142  90.1558370 108.9472916  34.7605847  89.2129943
  99.5874875  36.3782392 100.5294703  99.2677659  35.5247700 100.2369077
  99.0408303  36.5930970 101.2852670 103.3654783  39.0944833 104.2464209
 103.5840792  40.0261941 104.2652243 103.7780556  38.7352808 105.0319013
 110.2859000  29.6012919  96.2339898 109.4759729  29.2560004  96.6095144
 110.9743417  29.2920462  96.8227509 112.2149549  28.6790965  97.8564194
 112.7680587  29.0986419  98.5154217 112.4519635  27.7526714  97.8987150
 107.4395719  31.9162964  90.2207636 108.3014883  32.2417862  90.4803453
 107.6246063  31.1294460  89.7080701  99.4563135  39.9985304 102.4987824
  98.7626606  39.5839257 101.9857779 100.2036126  40.0405840 101.9021243
 115.5928356  30.7891491  97.3642859 115.0127025  31.4476295  96.9820911
 115.3264288  29.9668835  96.9530276 101.3699878  39.9303558 100.3753839
 101.3470566  40.0291245  99.4235722 101.6800514  40.7768708 100.6971005
 104.0287255  41.9879713 104.4900454 104.9830509  41.9563655 104.4230385
 103.8299779  41.5270336 105.3050680 104.6186638  40.5580829 107.0571251
 105.4379527  41.0524907 107.0806089 104.8923445  39.6412797 107.0288819
 114.3753234  32.9491581  96.4199207 113.4879089  33.2341232  96.2019402
 114.7907223  32.7885344  95.5726484 102.3837484  47.5299332 101.5070652
 102.2491952  46.7699733 100.9408650 101.9669546  48.2540232 101.0399440
 113.5196447  42.7136256  90.5147227 114.2232297  42.9186258  91.1304882
 112.7959096  43.2813018  90.7796310 114.3494257  38.4646117  96.6349497
 114.2929459  38.9214668  95.7957129 114.9022600  37.7036801  96.4572340
 118.1599063  34.2535849  97.4599616 117.9035998  33.8532484  98.2907824
 117.5351931  34.9679643  97.3349756 105.5406610  48.4268649 101.7189094
 105.4238994  49.3714082 101.6167784 104.7199056  48.1242211 102.1074893
 115.4283145  43.1518785  92.5645687 116.2628749  42.7199983  92.3823162
 115.2667488  42.9800799  93.4922581 115.0829037  39.6550898  93.9302026
 115.0277841  39.4895170  92.9890470 114.4575092  40.3626931  94.0864216
  99.8721552  34.8918963 107.7563448 100.5180415  34.3817916 108.2450674
  99.6638703  35.6287644 108.3306874 108.3925162  29.1559007  93.5087345
 108.3803832  30.1000847  93.6655615 109.2848584  28.9729153  93.2146806
 106.5661124  49.0796911 104.9345023 107.4688371  49.1120521 105.2511518
 106.3398494  48.1497362 104.9491358 108.3214726  47.8327898 101.5955101
 107.3710357  47.8329759 101.4819474 108.6247212  47.0860632 101.0791136
 112.2077282  25.7501784  97.7633281 111.4409678  25.1960270  97.9089964
 112.6187987  25.8223653  98.6247433 120.8657126  53.6215864 102.5962388
 120.5275638  53.5056929 101.7082923 121.7346894  53.2207029 102.5763394
 116.7243942  55.4751340  98.5859279 116.1608807  55.3841277  97.8175567
 116.6096337  54.6551245  99.0661772 114.2708374  56.9702532 101.4243500
 115.0629666  56.6293357 101.0089799 114.5105024  57.0797507 102.3445653
 116.2299128  56.2311445  94.2960879 117.0030004  55.6840432  94.1573754
 116.5824526  57.0955695  94.5075340 118.0684170  57.5587828 107.5027778
 117.7774036  58.4633458 107.3874444 118.7041154  57.6004355 108.2171847
 118.9940377  54.9364676 104.0929137 119.5903949  54.7120698 103.3786100
 119.0515349  54.1949422 104.6954585 118.5665405  52.3904111  91.9279328
 118.8190926  51.8685633  91.1662791 117.6289964  52.2270257  92.0306012
 118.2861694  54.2932217  94.1303703 118.1697952  53.6177121  94.7984788
 118.3963954  53.8064591  93.3135856 120.6293235  53.7542364  97.8350393
 120.2651442  53.2272985  98.5463314 121.4860351  53.3640834  97.6616878
 120.2698722  48.7832264  92.8311741 120.4373124  49.6512501  93.1982212
 120.0795891  48.9459546  91.9073030 116.4786537  53.6963040 100.5314276
 115.5537033  53.5639254 100.7391968 116.7270950  54.4757259 101.0284218
 120.2487943  51.2389922  93.8158408 120.1287568  51.6846972  94.6543888
 119.5540531  51.5875239  93.2571946 113.8395348  53.3396313 101.3658065
 113.9687729  53.5930792 102.2797477 113.1592799  53.9324021 101.0462720
 118.0094835  64.0093563  97.4648539 117.9318865  64.9601389  97.5437020
 117.4056479  63.6639436  98.1223466 118.7558437  53.9906882 109.6827873
 119.4973121  54.5291926 109.4062697 118.0495423  54.6173171 109.8399425
 120.5844847  51.0708629 105.6533592 121.4306042  51.4948043 105.7968241
 120.5243484  50.4142254 106.3472155 120.1070553  56.4311621  99.3002409
 120.5708899  56.7099324  98.5107031 119.8427351  55.5295066  99.1175499
 116.9994634  55.9783103 102.2382172 117.5695991  56.4070371 101.5999656
 117.5902746  55.6965688 102.9366357 119.0439439  52.5534774  96.1091974
 119.7463483  53.0055817  96.5765900 118.7120068  51.9118593  96.7371867
 112.7864773  50.8118326 101.4109107 111.9963827  51.0675855 100.9349218
 113.2776021  51.6266664 101.5161148 114.7379519  51.1762906  98.3692584
 113.9410682  51.2881600  98.8876080 114.5105111  51.5149558  97.5033474
 120.5685186  57.7007609 106.3175099 120.6329619  58.1628016 107.1533270
 119.8596110  57.0704974 106.4457408 111.0702476  51.0648817 103.8424098
 111.3210515  51.9495827 104.1081674 111.6062025  50.8853418 103.0699190
 120.2833204  59.3675716  96.1854079 120.1478879  60.2127252  96.6138927
 120.8243016  59.5694994  95.4220013 113.7362601  56.8851154  96.7582004
 114.2487122  57.6794405  96.9087569 114.3885314  56.1877445  96.6915605
 115.5457486  60.0016911  98.8404757 115.7224114  60.9234875  98.6525741
 116.3414320  59.6875330  99.2699137 114.8309843  52.0481543 108.7166920
 114.7163358  51.1466800 109.0174019 113.9754360  52.2945239 108.3651737
 116.6688801  61.5195084 104.8415100 117.2196227  61.3912148 104.0692093
 115.8300277  61.8189973 104.4909992 120.4655973  57.7846212 109.1859331
 120.9984309  57.0234500 108.9558639 119.9370054  57.4919864 109.9283485
 111.7011518  55.2139809  97.5341575 112.5386740  55.6236817  97.3175282
 111.8789786  54.2739251  97.5041768 121.1823061  47.7264590  98.2810646
 120.3264658  47.3371441  98.1016285 121.5950013  47.8056551  97.4210431
 118.9565094  45.3449663 101.6868387 119.8218091  45.1492472 101.3274277
 119.0242603  45.1160015 102.6137744 121.8308685  56.9132205  96.6978143
 121.3030047  56.1784964  96.3851380 121.3296188  57.6906881  96.4518111
 116.5627413  47.5751871  99.0584754 117.1371165  47.3527053  98.3257947
 117.1498395  47.6440566  99.8113355 116.8897000  49.6056332  93.0780639
 116.0534312  49.9431019  93.3989914 116.7501770  49.4705312  92.1407776
 118.8650081  44.4493120  97.7859824 118.2114493  44.1342137  97.1616438
 118.8230555  43.8268860  98.5119647 119.9761285  54.7312415  89.7013116
 119.0688347  54.5001668  89.9004265 120.4732317  53.9350034  89.8887097
 121.1549519  54.8325010  94.2237106 120.2460738  54.5484043  94.3209576
 121.1844603  55.2524088  93.3640413 111.7237689  52.5530524  98.2052308
 111.5262089  51.9599885  97.4803375 111.1684353  52.2482734  98.9228247
 119.7034413  52.4453631 100.3246901 119.7583023  51.4927467 100.2489378
 118.8925615  52.6013070 100.8088200 120.8525607  56.3733754  91.5625184
 120.4145037  55.6569613  91.1030822 121.5936048  56.6009868  91.0010276
 117.6426773  51.0630690  98.0837280 116.8294638  51.3624861  98.4902472
 118.1385767  50.6686379  98.8011762 119.7935351  61.0588447 100.0171545
 119.7511529  61.2849293  99.0880077 120.7098050  60.8251822 100.1657346
 117.1340848  48.6349046 103.6998515 117.7740227  48.4937805 103.0021478
 116.3018378  48.3483559 103.3237117 117.9101151  57.9351476  99.8133507
 118.7041750  57.4401796  99.6116082 117.1992844  57.4069339  99.4501213
 114.2183915  52.0794558  95.8893260 113.2881503  52.0179013  96.1063222
 114.3141387  51.5570511  95.0929901 114.1369464  48.6049371  98.4771502
 114.3976281  49.5194704  98.3680662 114.9586636  48.1373813  98.6268115
 115.6094389  50.0187128 105.6470326 116.2817443  49.8104490 104.9982975
 114.7824176  49.8209214 105.2075559 120.4872427  58.5080498 103.4931345
 120.3483513  58.1399283 104.3657283 119.6987024  59.0228138 103.3215302
 121.0820579  63.6089595  94.8356881 121.2572335  63.1377638  95.6502504
 120.3953367  64.2355361  95.0638142 122.0377643  57.8862101 100.8820182
 121.7027475  57.8462871 101.7777832 121.5381588  57.2206817 100.4090593
 116.0121887  53.2929731 106.4072763 115.8741685  52.5609970 107.0084303
 116.9226810  53.2038631 106.1256951 118.6404187  53.0049690 105.8956443
 119.3503806  52.3642882 105.8543062 118.5973495  53.2562585 106.8182624
 117.3533121  49.9914908 107.7152083 116.8170478  49.5405647 108.3673679
 116.7649830  50.1260817 106.9722547 115.6481665  66.7578957 101.6096741
 115.8878263  67.3897482 102.2875760 114.8050861  66.4066997 101.8962100
 116.7635380  49.4503560  90.2778546 115.8864847  49.3292360  89.9140793
 117.2393133  48.6589638  90.0257435 108.2837520  54.2380719 100.3720053
 108.9708560  53.9242449  99.7841069 108.1285649  55.1422084 100.0987305
 113.0872242  49.1270916 104.8005077 113.0030431  48.5196585 104.0655487
 112.2654949  49.6179934 104.8014573 120.1609527  62.5658080 104.0138245
 120.0879698  63.3713051 104.5257550 119.7186920  62.7650046 103.1886267
 119.9499306  61.8029850  97.5241067 119.1666828  62.3451530  97.6179291
 120.6492051  62.3203830  97.9235308 119.8430925  49.7541862  99.8946957
 119.4728713  49.2012903 100.5827862 120.3390018  49.1499996  99.3421957
 117.6720124  60.2139357 106.9901975 118.3729583  60.8475840 107.1431369
 117.2015239  60.5554089 106.2297614 113.2687842  59.7475712 103.9233077
 113.8541279  59.0019400 104.0560982 113.0712680  60.0579669 104.8069741
 116.1226497  62.7826960  98.9395520 115.4536872  63.2673087  98.4559560
 115.9839367  63.0296180  99.8538898 107.8605496  52.3181313 102.6437521
 107.8989596  51.7844903 103.4374639 107.3545789  51.7916518 102.0248498
 120.2631766  64.8170703 105.5378178 120.8150074  64.9802325 106.3027263
 120.6037959  65.4075141 104.8658203 115.2396259  47.1645853 106.1400063
 115.3037585  48.0260684 105.7277461 115.1763379  46.5519855 105.4072421
 111.4914074  51.0445415  95.7191452 111.7867515  50.1356093  95.6658506
 110.5902110  51.0233154  95.3972454 115.0208321  49.1201411 101.7019000
 114.2994907  49.7337379 101.5626474 115.8101577  49.6559176 101.6235646
 113.2201916  48.7259512  95.8430777 112.8914622  47.8456891  95.6605883
 113.5741286  48.6707181  96.7307166 116.3343739  49.0132482  96.2106255
 116.6739811  49.5418403  95.4884863 116.7815859  49.3512888  96.9864821
 118.3211886  47.5107104  94.4099547 119.0420248  47.8888357  93.9063264
 117.6977190  48.2295981  94.5134525 117.2042230  51.1737966 101.9228624
 117.0586811  51.4878269 102.8152906 116.7267434  51.7922866 101.3699523
 119.0638613  48.1640514 101.9709514 119.0500182  47.2681607 101.6341812
 119.7811041  48.1711178 102.6047800 120.9164744  48.5977854 104.0162641
 120.6582522  49.5194925 104.0146972 120.3849784  48.2008289 104.7063106
 111.6787892  53.7143310 104.8616286 111.1341360  54.4903118 104.9936560
 112.5567242  54.0614115 104.7035407 118.4675509  47.0454894  97.2397084
 118.5891420  46.1171540  97.4387972 118.1777551  47.0593580  96.3275400
 121.3366699  44.7309805 100.3763804 121.3588396  44.7949138  99.4215783
 121.7534758  43.8914313 100.5704310 112.4653914  52.8413207 107.7546442
 111.7235650  52.9895842 108.3411073 112.1446658  53.1021472 106.8913192
 120.4097577  62.3829185 107.5526832 120.7184703  62.1378332 108.4249532
 121.2073059  62.5875823 107.0645703 120.4318189  64.5367095  99.7832209
 119.9923179  64.0443473 100.4765066 121.1826306  63.9940062  99.5424284
 112.9110528  60.7278635  99.7856837 113.7368548  60.4282407  99.4055481
 112.5604580  59.9586258 100.2346626 117.8792061  60.0805104 101.8554511
 117.2572070  59.4175809 101.5556739 118.5496928  60.1066236 101.1728158
 111.1119133  58.6464962 100.7445771 110.2751041  58.2187136 100.5629772
 111.0842778  58.8397405 101.6816562 117.4405568  58.6309027  95.3312971
 117.5893688  59.3144491  94.6779644 118.2472011  58.6114117  95.8462427
 115.1958201  54.6574205  96.3374040 114.9504243  53.7536535  96.5354250
 115.3654115  54.6591355  95.3953518 114.4653848  50.3902562  93.8360202
 113.7723093  50.4646917  93.1800238 114.2205600  49.6262906  94.3581719
 120.9400973  61.1257157  92.8024719 120.3674941  61.7447345  92.3495191
 121.5133767  61.6756519  93.3364641 121.3247772  52.4617970  90.1440771
 122.2706877  52.3324178  90.2129189 120.9462017  51.7232632  90.6210199
 119.5090689  50.3867947  90.0795656 118.6022145  50.0901059  90.1558370
 119.7866670  50.0897765  89.2129943 110.4268630  51.7074310 100.5294703
 110.1071414  50.8539618 100.2369077 109.8802058  51.9222888 101.2852670
 114.2048537  54.4236751 104.2464209 114.4234547  55.3553859 104.2652243
 114.6174311  54.0644725 105.0319013 121.1252755  44.9304836  96.2339898
 120.3153483  44.5851921  96.6095144 121.8137172  44.6212380  96.8227509
 118.2789474  47.2454882  90.2207636 119.1408638  47.5709780  90.4803453
 118.4639818  46.4586378  89.7080701 110.2956890  55.3277221 102.4987824
 109.6020361  54.9131174 101.9857779 111.0429881  55.3697758 101.9021243
 112.2093632  55.2595475 100.3753839 112.1864320  55.3583163  99.4235722
 112.5194269  56.1060626 100.6971005 114.8681010  57.3171630 104.4900454
 115.8224263  57.2855573 104.4230385 114.6693533  56.8562254 105.3050680
 115.4580392  55.8872746 107.0571251 116.2773281  56.3816825 107.0806089
 115.7317200  54.9704714 107.0288819 113.2231239  62.8591250 101.5070652
 113.0885707  62.0991651 100.9408650 112.8063301  63.5832150 101.0399440
 116.3800365  63.7560567 101.7189094 116.2632749  64.7005999 101.6167784
 115.5592811  63.4534128 102.1074893 110.7115306  50.2210880 107.7563448
 111.3574170  49.7109834 108.2450674 110.5032457  50.9579562 108.3306874
 119.2318917  44.4850925  93.5087345 119.2197587  45.4292765  93.6655615
 120.1242339  44.3021070  93.2146806 117.4054879  64.4088829 104.9345023
 118.3082125  64.4412439 105.2511518 117.1792249  63.4789280 104.9491358
 119.1608481  63.1619815 101.5955101 118.2104112  63.1621677 101.4819474
 119.4640967  62.4152550 101.0791136 121.9096231  66.3940735 103.8424098
 122.1604269  67.2787744 104.1081674 122.4455779  66.2145336 103.0699190
 119.1231275  69.5672637 100.3720053 119.8102315  69.2534367  99.7841069
 118.9679403  70.4714002 100.0987305 118.6999251  67.6473230 102.6437521
 118.7383350  67.1136821 103.4374639 118.1939544  67.1208436 102.0248498
 121.9512887  73.9756880 100.7445771 121.1144796  73.5479054 100.5629772
 121.9236533  74.1689323 101.6816562 121.2662384  67.0366228 100.5294703
 120.9465168  66.1831536 100.2369077 120.7195812  67.2514806 101.2852670
 121.1350644  70.6569139 102.4987824 120.4414115  70.2423092 101.9857779
 121.8823635  70.6989676 101.9021243 121.5509061  65.5502798 107.7563448
 122.1967924  65.0401752 108.2450674 121.3426212  66.2871479 108.3306874
  96.3307327  10.3571851  84.1893846  96.2531357  11.3079676  84.2682326
  95.7268971  10.0117723  84.8468772  93.9694157  13.1057245  88.3342048
  94.2090755  13.7375769  89.0121066  93.1263353  12.7545285  88.6207407
  94.4438989   9.1305247  85.6640826  93.7749364   9.6151375  85.1804866
  94.3051859   9.3774467  86.5784205  98.5844258  11.1648991  92.2623485
  99.1362566  11.3280612  93.0272570  98.9250451  11.7553428  91.5903510
  98.7530681  10.8845382  86.5077516  98.3135671  10.3921760  87.2010372
  99.5038798  10.3418349  86.2669591  91.5443731   9.2069537  88.2315958
  91.4098199   8.4469938  87.6653956  91.1275793   9.9310437  87.7644747
  94.7012857  10.1038854  88.4434401  94.5845241  11.0484287  88.3413091
  93.8805303   9.8012416  88.8320200  95.7267371  10.7567116  91.6590329
  96.6294618  10.7890726  91.9756824  95.5004741   9.8267567  91.6736665
 110.0263373  15.2986069  89.3207695 109.6881884  15.1827134  88.4328230
 110.8953141  14.8977234  89.3008701 105.8850188  17.1521545  85.3104586
 105.3215054  17.0611482  84.5420874 105.7702584  16.3321450  85.7907078
 103.4314620  18.6472737  88.1488806 104.2235912  18.3063562  87.7335106
 103.6711271  18.7567712  89.0690960 111.4649747  20.8192513  80.6219051
 110.8137727  21.4046593  80.2353065 112.2594110  21.3498708  80.6814088
 105.3905374  17.9081650  81.0206185 106.1636250  17.3610637  80.8819061
 105.7430773  18.7725900  81.2320647 107.2290417  19.2358032  94.2273084
 106.9380283  20.1403663  94.1119751 107.8647401  19.2774560  94.9417154
 108.1546624  16.6134881  90.8174444 108.7510196  16.3890903  90.1031407
 108.2121595  15.8719626  91.4199892 107.7271652  14.0674316  78.6524635
 107.9797173  13.5455838  77.8908098 106.7896211  13.9040462  78.7551319
 112.9425012  18.5082945  81.1588035 112.3070845  18.5817572  81.8708940
 112.6122419  19.0976544  80.4807114 107.4467941  15.9702422  80.8549010
 107.3304199  15.2947326  81.5230094 107.5570201  15.4834796  80.0381163
 109.7899482  15.4312569  84.5595699 109.4257689  14.9043190  85.2708621
 110.6466598  15.0411038  84.3862185 112.1880302  18.9219448  91.2222878
 111.8881025  19.8244487  91.1138685 111.8431361  18.6551631  92.0744031
 105.6392783  15.3733245  87.2559583 104.7143280  15.2409459  87.4637274
 105.8877197  16.1527464  87.7529525 103.0001594  15.0166518  88.0903372
 103.1293976  15.2700997  89.0042783 102.3199046  15.6094226  87.7708027
 107.1701082  25.6863768  84.1893846 107.0925111  26.6371593  84.2682326
 106.5662725  25.3409641  84.8468772 107.9164684  15.6677087  96.4073180
 108.6579368  16.2062131  96.1308003 107.2101669  16.2943376  96.5644732
 113.7148838  18.3707418  88.7597630 113.0857701  18.5353132  88.0573698
 113.3274500  18.7849028  89.5308594 117.5938070  19.3061856  86.1141994
 116.9089108  19.6860757  85.5639027 117.6781919  19.9157183  86.8473942
 109.2676800  18.1081826  86.0247715 109.7315146  18.3869529  85.2352338
 109.0033598  17.2065271  85.8420806 106.1600881  17.6553308  88.9627478
 106.7302238  18.0840576  88.3244963 106.7508993  17.3735893  89.6611664
 108.2045686  14.2304979  82.8337280 108.9069729  14.6826022  83.3011207
 107.8726315  13.5888798  83.4617173 101.9471020  12.4888531  88.1354414
 101.1570074  12.7446060  87.6594525 102.4382267  13.3036869  88.2406454
 115.9634830  19.8293771  90.8859695 116.7852273  19.4273958  90.6042376
 115.9597232  19.7262005  91.8375811 103.8985765  12.8533111  85.0937891
 103.1016929  12.9651805  85.6121386 103.6711358  13.1919763  84.2278781
 109.7291433  19.3777814  93.0420405 109.7935866  19.8398221  93.8778577
 109.0202357  18.7475179  93.1702715 100.2308723  12.7419022  90.5669405
 100.4816761  13.6266032  90.8326981 100.7668271  12.5623623  89.7944497
 109.4439451  21.0445921  82.9099386 109.3085125  21.8897457  83.3384233
 109.9849263  21.2465199  82.1465319 102.8968848  18.5621359  83.4827311
 103.4093369  19.3564610  83.6332875 103.5491561  17.8647650  83.4160912
 104.7063733  21.6787116  85.5650064 104.8830361  22.6005080  85.3771048
 105.5020566  21.3645535  85.9944444 103.9916089  13.7251748  95.4412227
 103.8769604  12.8237005  95.7419326 103.1360607  13.9715444  95.0897044
 111.0707927  21.6669488  97.0399728 110.6271781  20.8805866  96.7220632
 111.7325141  21.8548638  96.3743618 105.8295048  23.1965289  91.5660406
 106.3802473  23.0682353  90.7937400 104.9906524  23.4960178  91.2155299
 109.6262219  19.4616417  95.9104637 110.1590556  18.7004705  95.6803945
 109.0976300  19.1690069  96.6528792 100.8617765  16.8910014  84.2586881
 101.6992987  17.3007022  84.0420589 101.0396033  15.9509456  84.2287075
 117.7316471  17.3117449  81.8823888 116.9545914  16.9728608  81.4379050
 118.4107952  17.3170072  81.2078853 110.9914932  18.5902410  83.4223449
 110.4636294  17.8555169  83.1096687 110.4902435  19.3677086  83.1763418
 115.9707778  16.7851430  88.5390496 115.3131452  17.4750692  88.6270624
 116.7748177  17.1747862  88.8824482 109.1367532  16.4082620  76.4258422
 108.2294594  16.1771873  76.6249571 109.6338564  15.6120239  76.6132404
 112.0435611  25.1180127  79.3455108 111.3697310  25.4211824  79.9540066
 112.4301433  25.9209207  78.9960566 110.3155766  16.5095215  80.9482412
 109.4066985  16.2254248  81.0454882 110.3450849  16.9294293  80.0885719
 115.5475033  20.1201804  84.7173580 115.0937360  19.2792714  84.7738770
 114.9169000  20.7563203  85.0548360 113.9907972  21.9578301  85.6523398
 114.2830947  22.5183358  84.9335764 114.5006593  22.2506862  86.4076557
 100.8843936  14.2300729  84.9297615 100.6868336  13.6370090  84.2048681
 100.3290600  13.9252939  85.6473553 110.0131853  18.0503959  78.2870491
 109.5751283  17.3339817  77.8276128 110.7542294  18.2780073  77.7255582
 108.9541597  22.7358652  86.7416851 108.9117776  22.9619498  85.8125383
 109.8704296  22.5022027  86.8902652 107.0707398  19.6121681  86.5378814
 107.8647997  19.1172001  86.3361389 106.3599091  19.0839544  86.1746520
 111.8902243  21.9939777  90.8891182 111.9439265  22.5630713  91.6568898
 111.0217024  22.1641662  90.5245219 103.3790162  13.7564763  82.6138567
 102.4487750  13.6949218  82.8308529 103.4747634  13.2340716  81.8175208
 110.8490342  16.1600039  92.4478114 111.7782402  16.3111198  92.2747081
 110.4281372  16.2484059  91.5926760 109.6478674  20.1850703  90.2176651
 109.5089760  19.8169488  91.0902589 108.8593270  20.6998343  90.0460609
 110.2426826  25.2859800  81.5602188 110.4178582  24.8147843  82.3747810
 109.5559614  25.9125566  81.7883448 111.1983889  19.5632306  87.6065489
 110.8633722  19.5233076  88.5023139 110.6987835  18.8977022  87.1335899
 105.1728133  14.9699936  93.1318070 105.0347931  14.2380175  93.7329609
 106.0833057  14.8808836  92.8502258 114.1343081  16.9088340  77.8802549
 113.5172252  16.1835168  77.7835601 113.6659569  17.6697700  77.5369623
 107.8010434  14.6819895  92.6201750 108.5110053  14.0413087  92.5788368
 107.7579742  14.9332790  93.5427931 104.8087911  28.4349162  88.3342048
 105.0484510  29.0667686  89.0121066 103.9657108  28.0837202  88.6207407
  97.4443767  15.9150924  87.0965360  98.1314807  15.6012654  86.5086375
  97.2891896  16.8192289  86.8232611 109.3215773  24.2428285  90.7383552
 109.2485945  25.0483256  91.2502856 108.8793166  24.4420251  89.9131573
 109.1105553  23.4800055  84.2486373 108.3273075  24.0221735  84.3424598
 109.8098298  23.9974034  84.6480615 111.7814457  24.1415119  92.8941710
 112.4942429  24.7762584  92.8217612 111.2904486  24.2378985  92.0781712
 113.5031984  18.0466371  84.4659002 112.5688263  18.1667834  84.2963706
 113.6808652  17.1438838  84.2019012 106.8326370  21.8909562  93.7147281
 107.5335830  22.5246045  93.8676676 106.3621485  22.2324294  92.9542921
 114.9580766  20.2327512  81.9995188 115.2340610  20.1184107  82.9089062
 114.0885265  19.8344997  81.9607361 111.5934830  24.4813863  85.6428002
 111.7757225  23.6635519  86.1055754 112.4167816  24.6981555  85.2052892
 111.9276996  23.4082048  82.9043050 112.4564762  22.8974503  82.2913213
 112.1905215  23.0924578  83.7688583 102.4294088  21.4245917  90.6478384
 103.0147525  20.6789605  90.7806288 102.2318927  21.7349874  91.5315048
 105.2832744  24.4597165  85.6640826 104.6143119  24.9443292  85.1804866
 105.1445613  24.7066385  86.5784205  97.0211743  13.9951518  89.3682827
  97.0595843  13.4615108  90.1619945  96.5152036  13.4686723  88.7493804
 109.4238012  26.4940908  92.2623485 109.9756320  26.6572530  93.0272570
 109.7644206  27.0845346  91.5903510 100.6520321  12.7215620  82.4436759
 100.9473762  11.8126298  82.3903812  99.7508357  12.7003359  82.1217761
 112.5606400  24.4422884  89.2487167 112.4357539  23.6412624  88.7398112
 113.2185491  24.9369077  88.7601137 114.6241308  22.2431904  90.8766717
 113.6771643  22.1237255  90.8045044 114.9724081  21.3554402  90.9592978
 111.6287741  22.0384620  87.0771069 111.4812704  21.1101327  87.2578639
 112.4541235  22.0604711  86.5928144 115.2321863  22.8613179  88.1635942
 116.1568411  22.6556040  88.0260393 115.0637166  22.6129580  89.0725283
 106.3648477  12.8508171  88.6473931 106.2193058  13.1648474  89.5398213
 105.8873681  13.4693071  88.0944830 115.0217179  23.3798846  83.5198033
 115.1954057  22.8145269  82.7671886 115.5146071  24.1799741  83.3377523
 100.8394139  15.3913515  91.5861592 100.2947607  16.1673323  91.7181867
 101.7173489  15.7384320  91.4280714 116.0092352  22.6965611  80.6194932
 116.7043256  23.3172303  80.8382246 116.3515502  21.8460962  80.8947310
 101.6260161  14.5183412  94.4791749 100.8841897  14.6666047  95.0656380
 101.3052905  14.7791677  93.6158498 117.9083775  20.1465316  82.1482262
 118.4335099  20.4852589  81.4231582 117.8206127  19.2112332  81.9645397
 109.5703824  24.0599390  94.2772139 109.8790950  23.8148537  95.1494839
 110.3679306  24.2646028  93.7891009 109.5924436  26.2137299  86.5077516
 109.1529426  25.7213678  87.2010372 110.3432553  25.6710267  86.2669591
 102.0716775  22.4048840  86.5102144 102.8974795  22.1052612  86.1300787
 101.7210827  21.6356463  86.9591932 107.0398308  21.7575309  88.5799817
 106.4178317  21.0946014  88.2802045 107.7103175  21.7836440  87.8973465
 100.2725380  20.3235167  87.4691077  99.4357288  19.8957341  87.2875079
 100.2449025  20.5167610  88.4061869 106.6011815  20.3079232  82.0558278
 106.7499935  20.9914696  81.4024951 107.4078258  20.2884322  82.5707734
 104.3564448  16.3344410  83.0619347 104.1110490  15.4306740  83.2599557
 104.5260362  16.3361560  82.1198825 110.1007220  22.8027362  79.5270025
 109.5281187  23.4217549  79.0740497 110.6740014  23.3526724  80.0609947
 113.3204480  23.0864512  80.6578608 114.2535153  23.0210074  80.8611483
 113.2327693  23.9220779  80.1993140 115.9492497  22.4030383  77.6182555
 115.8706128  22.0690246  78.5118313 116.7702163  22.8952151  77.6174027
  99.5874876  13.3844515  87.2540009  99.2677661  12.5309823  86.9614383
  99.0408304  13.5993093  88.0097977 103.3654784  16.1006956  90.9709516
 103.5840794  17.0324064  90.9897550 103.7780558  15.7414930  91.7564320
  99.4563136  17.0047426  89.2233131  98.7626608  16.5901379  88.7103085
 100.2036127  17.0467963  88.6266550 101.3699879  16.9365680  87.0999146
 101.3470567  17.0353367  86.1481029 101.6800515  17.7830831  87.4216312
 104.0287257  18.9941835  91.2145760 104.9830510  18.9625778  91.1475692
 103.8299780  18.5332459  92.0295986 104.6186639  17.5642951  93.7816558
 105.4379528  18.0587030  93.8051395 104.8923447  16.6474919  93.7534125
 102.3837485  24.5361455  88.2315958 102.2491953  23.7761856  87.6653956
 101.9669548  25.2602355  87.7644747 113.5196448  19.7198378  77.2392533
 114.2232299  19.9248381  77.8550189 112.7959097  20.2875140  77.5041617
 105.5406611  25.4330772  88.4434401 105.4238995  26.3776204  88.3413091
 104.7199058  25.1304333  88.8320200 115.4283146  20.1580907  79.2890993
 116.2628750  19.7262106  79.1068468 115.2667489  19.9862921  80.2167888
 115.0829038  16.6613021  80.6547333 115.0277842  16.4957292  79.7135777
 114.4575093  17.3689054  80.8109523  99.8721553  11.8981085  94.4808755
 100.5180417  11.3880039  94.9695980  99.6638704  12.6349767  95.0552180
 106.5661125  26.0859034  91.6590329 107.4688372  26.1182644  91.9756824
 106.3398496  25.1559485  91.6736665 108.3214727  24.8390020  88.3200408
 107.3710358  24.8391882  88.2064780 108.6247214  24.0922755  87.8036442
 120.8657127  30.6277987  89.3207695 120.5275639  30.5119051  88.4328230
 121.7346895  30.2269152  89.3008701 116.7243943  32.4813463  85.3104586
 116.1608808  32.3903400  84.5420874 116.6096338  31.6613367  85.7907078
 114.2708375  33.9764655  88.1488806 115.0629667  33.6355479  87.7335106
 114.5105025  34.0859630  89.0690960 116.2299129  33.2373568  81.0206185
 117.0030005  32.6902555  80.8819061 116.5824528  34.1017817  81.2320647
 118.0684171  34.5649950  94.2273084 117.7774037  35.4695581  94.1119751
 118.7041156  34.6066478  94.9417154 118.9940378  31.9426799  90.8174444
 119.5903950  31.7182821  90.1031407 119.0515350  31.2011544  91.4199892
 118.5665407  29.3966234  78.6524635 118.8190927  28.8747755  77.8908098
 117.6289966  29.2332379  78.7551319 118.2861695  31.2994340  80.8549010
 118.1697953  30.6239243  81.5230094 118.3963955  30.8126714  80.0381163
 120.6293236  30.7604487  84.5595699 120.2651444  30.2335108  85.2708621
 121.4860352  30.3702956  84.3862185 120.2698723  25.7894387  79.5557048
 120.4373126  26.6574623  79.9227519 120.0795892  25.9521668  78.6318337
 116.4786538  30.7025163  87.2559583 115.5537034  30.5701377  87.4637274
 116.7270951  31.4819382  87.7529525 120.2487944  28.2452044  80.5403715
 120.1287569  28.6909095  81.3789195 119.5540533  28.5937362  79.9817253
 113.8395349  30.3458436  88.0903372 113.9687730  30.5992915  89.0042783
 113.1592800  30.9386144  87.7708027 118.0094836  41.0155686  84.1893846
 117.9318866  41.9663511  84.2682326 117.4056480  40.6701559  84.8468772
 118.7558438  30.9969005  96.4073180 119.4973123  31.5354049  96.1308003
 118.0495424  31.6235294  96.5644732 120.5844848  28.0770752  92.3778898
 121.4306043  28.5010166  92.5213547 120.5243486  27.4204376  93.0717461
 120.1070555  33.4373744  86.0247715 120.5708900  33.7161447  85.2352338
 119.8427353  32.5357189  85.8420806 116.9994636  32.9845226  88.9627478
 117.5695993  33.4132494  88.3244963 117.5902747  32.7027810  89.6611664
 119.0439441  29.5596896  82.8337280 119.7463484  30.0117940  83.3011207
 118.7120069  28.9180715  83.4617173 112.7864775  27.8180449  88.1354414
 111.9963829  28.0737978  87.6594525 113.2776022  28.6328787  88.2406454
 114.7379520  28.1825028  85.0937891 113.9410683  28.2943723  85.6121386
 114.5105112  28.5211680  84.2278781 120.5685188  34.7069731  93.0420405
 120.6329620  35.1690139  93.8778577 119.8596111  34.0767096  93.1702715
 111.0702478  28.0710939  90.5669405 111.3210516  28.9557949  90.8326981
 111.6062026  27.8915541  89.7944497 120.2833205  36.3737839  82.9099386
 120.1478880  37.2189375  83.3384233 120.8243018  36.5757117  82.1465319
 113.7362603  33.8913277  83.4827311 114.2487123  34.6856527  83.6332875
 114.3885315  33.1939567  83.4160912 115.5457487  37.0079033  85.5650064
 115.7224116  37.9296998  85.3771048 116.3414321  36.6937453  85.9944444
 114.8309844  29.0543665  95.4412227 114.7163359  28.1528922  95.7419326
 113.9754362  29.3007362  95.0897044 116.6688803  38.5257207  91.5660406
 117.2196228  38.3974270  90.7937400 115.8300279  38.8252096  91.2155299
 120.4655974  34.7908335  95.9104637 120.9984311  34.0296623  95.6803945
 119.9370055  34.4981987  96.6528792 111.7011519  32.2201931  84.2586881
 112.5386741  32.6298940  84.0420589 111.8789787  31.2801373  84.2287075
 121.1823063  24.7326713  85.0055953 120.3264659  24.3433563  84.8261591
 121.5950014  24.8118674  84.1455738 118.9565095  22.3511786  88.4113694
 119.8218092  22.1554594  88.0519583 119.0242604  22.1222138  89.3383051
 121.8308686  33.9194327  83.4223449 121.3030048  33.1847087  83.1096687
 121.3296189  34.6969004  83.1763418 116.5627414  24.5813994  85.7830061
 117.1371166  24.3589175  85.0503254 117.1498397  24.6502688  86.5358662
 116.8897001  26.6118455  79.8025946 116.0534313  26.9493141  80.1235221
 116.7501771  26.4767434  78.8653083 118.8650082  21.4555243  84.5105130
 118.2114494  21.1404260  83.8861745 118.8230556  20.8330983  85.2364953
 119.9761287  31.7374538  76.4258422 119.0688348  31.5063791  76.6249571
 120.4732319  30.9412157  76.6132404 121.1549520  31.8387133  80.9482412
 120.2460739  31.5546165  81.0454882 121.1844604  32.2586211  80.0885719
 111.7237690  29.5592647  84.9297615 111.5262090  28.9662007  84.2048681
 111.1684354  29.2544857  85.6473553 119.7034414  29.4515753  87.0492208
 119.7583024  28.4989590  86.9734684 118.8925616  29.6075192  87.5333506
 120.8525608  33.3795876  78.2870491 120.4145038  32.6631735  77.8276128
 121.5936049  33.6071991  77.7255582 117.6426774  28.0692813  84.8082587
 116.8294640  28.3686983  85.2147779 118.1385768  27.6748502  85.5257069
 119.7935352  38.0650570  86.7416851 119.7511531  38.2911416  85.8125383
 120.7098051  37.8313944  86.8902652 117.1340849  25.6411168  90.4243822
 117.7740228  25.4999927  89.7266785 116.3018379  25.3545682  90.0482424
 117.9101153  34.9413599  86.5378814 118.7041751  34.4463919  86.3361389
 117.1992845  34.4131462  86.1746520 114.2183916  29.0856681  82.6138567
 113.2881504  29.0241136  82.8308529 114.3141388  28.5632633  81.8175208
 114.1369465  25.6111493  85.2016808 114.3976283  26.5256827  85.0925969
 114.9586638  25.1435936  85.3513421 115.6094391  27.0249251  92.3715633
 116.2817444  26.8166613  91.7228282 114.7824177  26.8271337  91.9320865
 120.4872429  35.5142621  90.2176651 120.3483514  35.1461405  91.0902589
 119.6987025  36.0290260  90.0460609 121.0820581  40.6151717  81.5602188
 121.2572336  40.1439760  82.3747810 120.3953369  41.2417483  81.7883448
 122.0377644  34.8924223  87.6065489 121.7027476  34.8524993  88.5023139
 121.5381590  34.2268939  87.1335899 116.0121888  30.2991854  93.1318070
 115.8741686  29.5672092  93.7329609 116.9226811  30.2100754  92.8502258
 118.6404189  30.0111813  92.6201750 119.3503807  29.3705005  92.5788368
 118.5973497  30.2624708  93.5427931 117.3533122  26.9977031  94.4397389
 116.8170479  26.5467769  95.0918986 116.7649831  27.1322940  93.6967854
 115.6481666  43.7641080  88.3342048 115.8878264  44.3959604  89.0121066
 114.8050862  43.4129120  88.6207407 116.7635381  26.4565682  77.0023853
 115.8864848  26.3354483  76.6386100 117.2393135  25.6651760  76.7502742
 108.2837522  31.2442842  87.0965360 108.9708561  30.9304572  86.5086375
 108.1285650  32.1484206  86.8232611 113.0872244  26.1333038  91.5250384
 113.0030432  25.5258708  90.7900794 112.2654950  26.6242057  91.5259880
 120.1609528  39.5720202  90.7383552 120.0879699  40.3775174  91.2502856
 119.7186921  39.7712168  89.9131573 119.9499307  38.8091972  84.2486373
 119.1666829  39.3513653  84.3424598 120.6492053  39.3265952  84.6480615
 119.8430926  26.7603985  86.6192263 119.4728714  26.2075025  87.3073169
 120.3390019  26.1562118  86.0667263 117.6720125  37.2201480  93.7147281
 118.3729584  37.8537963  93.8676676 117.2015240  37.5616211  92.9542921
 113.2687843  36.7537835  90.6478384 113.8541280  36.0081523  90.7806288
 113.0712681  37.0641792  91.5315048 116.1226498  39.7889082  85.6640826
 115.4536873  40.2735210  85.1804866 115.9839368  40.0358303  86.5784205
 107.8605498  29.3243435  89.3682827 107.8989597  28.7907026  90.1619945
 107.3545791  28.7978641  88.7493804 120.2631767  41.8232826  92.2623485
 120.8150075  41.9864447  93.0272570 120.6037960  42.4137264  91.5903510
 115.2396260  24.1707976  92.8645369 115.3037586  25.0322807  92.4522767
 115.1763380  23.5581977  92.1317728 111.4914075  28.0507537  82.4436759
 111.7867516  27.1418216  82.3903812 110.5902111  28.0295277  82.1217761
 115.0208322  26.1263534  88.4264307 114.2994908  26.7399502  88.2871780
 115.8101578  26.6621299  88.3480953 113.2201917  25.7321635  82.5676084
 112.8914623  24.8519014  82.3851190 113.5741288  25.6769304  83.4552473
 116.3343740  26.0194605  82.9351561 116.6739813  26.5480526  82.2130170
 116.7815860  26.3575011  83.7110128 118.3211887  24.5169226  81.1344854
 119.0420250  24.8950479  80.6308571 117.6977191  25.2358103  81.2379832
 117.2042231  28.1800089  88.6473931 117.0586812  28.4940392  89.5398213
 116.7267435  28.7984989  88.0944830 119.0638614  25.1702637  88.6954821
 119.0500183  24.2743730  88.3587119 119.7811042  25.1773300  89.3293107
 120.9164745  25.6039977  90.7407948 120.6582523  26.5257047  90.7392278
 120.3849785  25.2070411  91.4308412 111.6787894  30.7205433  91.5861592
 111.1341362  31.4965241  91.7181867 112.5567243  31.0676237  91.4280714
 118.4675510  24.0517017  83.9642391 118.5891421  23.1233663  84.1633278
 118.1777553  24.0655703  83.0520706 121.3366701  21.7371927  87.1009111
 121.3588397  21.8011260  86.1461090 121.7534760  20.8976436  87.2949617
 112.4653915  29.8475329  94.4791749 111.7235651  29.9957965  95.0656380
 112.1446660  30.1083595  93.6158498 120.4097578  39.3891308  94.2772139
 120.7184705  39.1440454  95.1494839 121.2073060  39.5937946  93.7891009
 120.4318190  41.5429217  86.5077516 119.9923180  41.0505596  87.2010372
 121.1826307  41.0002185  86.2669591 112.9110529  37.7340758  86.5102144
 113.7368549  37.4344530  86.1300787 112.5604581  36.9648380  86.9591932
 117.8792062  37.0867226  88.5799817 117.2572072  36.4237931  88.2802045
 118.5496929  37.1128358  87.8973465 111.1119134  35.6527084  87.4691077
 110.2751042  35.2249259  87.2875079 111.0842780  35.8459528  88.4061869
 117.4405569  35.6371150  82.0558278 117.5893690  36.3206614  81.4024951
 118.2472013  35.6176240  82.5707734 115.1958202  31.6636327  83.0619347
 114.9504244  30.7598657  83.2599557 115.3654117  31.6653478  82.1198825
 114.4653850  27.3964685  80.5605508 113.7723095  27.4709040  79.9045544
 114.2205602  26.6325028  81.0827025 120.9400975  38.1319280  79.5270025
 120.3674942  38.7509467  79.0740497 121.5133768  38.6818642  80.0609947
 121.3247773  29.4680093  76.8686078 122.2706878  29.3386301  76.9374496
 120.9462018  28.7294755  77.3455506 119.5090690  27.3930069  76.8040963
 118.6022146  27.0963182  76.8803677 119.7866671  27.0959887  75.9375249
 110.4268631  28.7136433  87.2540009 110.1071415  27.8601741  86.9614383
 109.8802059  28.9285011  88.0097977 114.2048538  31.4298874  90.9709516
 114.4234548  32.3615981  90.9897550 114.6174312  31.0706848  91.7564320
 121.1252756  21.9366959  82.9585204 120.3153484  21.5914044  83.3340450
 121.8137173  21.6274503  83.5472816 118.2789475  24.2517004  76.9452942
 119.1408639  24.5771903  77.2048760 118.4639819  23.4648500  76.4326008
 110.2956891  32.3339344  89.2233131 109.6020362  31.9193297  88.7103085
 111.0429882  32.3759881  88.6266550 112.2093633  32.2657598  87.0999146
 112.1864321  32.3645285  86.1481029 112.5194270  33.1122749  87.4216312
 114.8681011  34.3233753  91.2145760 115.8224265  34.2917695  91.1475692
 114.6693535  33.8624377  92.0295986 115.4580393  32.8934869  93.7816558
 116.2773282  33.3878948  93.8051395 115.7317201  31.9766837  93.7534125
 113.2231240  39.8653372  88.2315958 113.0885708  39.1053773  87.6653956
 112.8063302  40.5894272  87.7644747 116.3800366  40.7622689  88.4434401
 116.2632750  41.7068122  88.3413091 115.5592812  40.4596251  88.8320200
 110.7115308  27.2273003  94.4808755 111.3574171  26.7171957  94.9695980
 110.5032459  27.9641684  95.0552180 119.2318918  21.4913047  80.2332651
 119.2197588  22.4354887  80.3900922 120.1242340  21.3083193  79.9392112
 117.4054880  41.4150951  91.6590329 118.3082127  41.4474562  91.9756824
 117.1792250  40.4851402  91.6736665 119.1608482  40.1681938  88.3200408
 118.2104113  40.1683799  88.2064780 119.4640968  39.4214672  87.8036442
 121.9096232  43.4002857  90.5669405 122.1604270  44.2849867  90.8326981
 122.4455780  43.2207459  89.7944497 119.1231276  46.5734760  87.0965360
 119.8102316  46.2596490  86.5086375 118.9679405  47.4776124  86.8232611
 118.6999252  44.6535353  89.3682827 118.7383352  44.1198944  90.1619945
 118.1939545  44.1270558  88.7493804 121.9512889  50.9819002  87.4691077
 121.1144797  50.5541176  87.2875079 121.9236534  51.1751445  88.4061869
 121.2662385  44.0428350  87.2540009 120.9465170  43.1893658  86.9614383
 120.7195813  44.2576928  88.0097977 121.1350645  47.6631262  89.2233131
 120.4414117  47.2485215  88.7103085 121.8823636  47.7051798  88.6266550
 121.5509062  42.5564920  94.4808755 122.1967926  42.0463874  94.9695980
 121.3426213  43.2933602  95.0552180 118.0094838  18.0217809  70.9139152
 117.9318867  18.9725634  70.9927633 117.4056481  17.6763681  71.5714079
 115.6481667  20.7703203  75.0587354 115.8878265  21.4021727  75.7366373
 114.8050864  20.4191243  75.3452714 116.1226499  16.7951205  72.3886133
 115.4536875  17.2797333  71.9050173 115.9839369  17.0420425  73.3029512
 120.2631768  18.8294949  78.9868791 120.8150076  18.9926570  79.7517877
 120.6037961  19.4199386  78.3148816 120.4318191  18.5491340  73.2322822
 119.9923182  18.0567718  73.9255679 121.1826308  18.0064307  72.9914898
 113.2231241  16.8715495  74.9561265 113.0885709  16.1115896  74.3899263
 112.8063303  17.5956395  74.4890054 116.3800367  17.7684812  75.1679707
 116.2632751  18.7130244  75.0658398 115.5592813  17.4658374  75.5565507
 117.4054881  18.4213074  78.3835636 118.3082128  18.4536684  78.7002131
 117.1792251  17.4913525  78.3981972 121.9096233  20.4064980  77.2914711
 122.1604272  21.2911990  77.5572287 122.4455782  20.2269581  76.5189803
 119.1231277  23.5796882  73.8210667 119.8102317  23.2658612  73.2331682
 118.9679406  24.4838247  73.5477918 118.6999253  21.6597475  76.0928134
 118.7383353  21.1261066  76.8865252 118.1939546  21.1332681  75.4739111
 121.9512890  27.9881125  74.1936384 121.1144798  27.5603299  74.0120385
 121.9236535  28.1813568  75.1307175 121.2662387  21.0490473  73.9785316
 120.9465171  20.1955781  73.6859690 120.7195815  21.2639051  74.7343283
 121.1350647  24.6693384  75.9478438 120.4414118  24.2547337  75.4348392
 121.8823638  24.7113921  75.3511857 121.5509063  19.5627043  81.2054062
 122.1967927  19.0525997  81.6941287 121.3426214  20.2995725  81.7797487
  47.0073079  71.1055884 132.4473879  46.3334778  71.4087580 133.0558837
  47.3938901  71.9084964 132.0979336  49.0980549  62.8964097 130.9821319
  48.4809720  62.1710925 130.8854372  48.6297038  63.6573457 130.6388393
  50.9729820  68.6841367 133.7213702  51.6680724  69.3048060 133.9401017
  51.3152970  67.8336718 133.9966080  45.0644688  68.7903119 132.6288796
  44.4918655  69.4093306 132.1759268  45.6377482  69.3402481 133.1628718
  48.2841948  69.0740269 133.7597378  49.2172621  69.0085831 133.9630253
  48.1965161  69.9096536 133.3011911  50.9129965  68.3906139 130.7201326
  50.8343596  68.0566003 131.6137083  51.7339632  68.8827907 130.7192798
  48.4833917  65.7074135 130.3411304  49.1869767  65.9124137 130.9568959
  47.7596565  66.2750897 130.6060387  50.3920614  66.1456664 132.3909764
  51.2266218  65.7137862 132.2087239  50.2304957  65.9738678 133.3186658
  51.8534469  72.5994211 132.9044716  51.0171781  72.9368898 133.2253991
  51.7139239  72.4643191 131.9671853  51.7272849  72.4441439 130.1042623
  50.8502316  72.3230239 129.7404870  52.2030603  71.6527517 129.8521512
  49.4291318  73.3840441 133.6624279  48.7360563  73.4584796 133.0064315
  49.1843070  72.6200785 134.1845796  54.4728158  73.3805826 129.9059733
  53.5659614  73.0838938 129.9822447  54.7504139  73.0835644 129.0394020
  53.2426943  70.2392761 130.0471713  54.1046107  70.5647659 130.3067530
  53.4277287  69.4524257 129.5344778  54.1956386  67.4788804 133.3351422
  54.1835056  68.4230644 133.4919692  55.0879808  67.2958949 133.0410883
  47.0073080  48.1118006 119.1719186  46.3334779  48.4149703 119.7804143
  47.3938902  48.9147087 118.8224643  49.0980550  39.9026219 117.7066626
  48.4809721  39.1773047 117.6099678  48.6297039  40.6635580 117.3633700
  50.9729821  45.6903490 120.4459009  51.6680726  46.3110183 120.6646323
  51.3152971  44.8398841 120.7211387  45.0644690  45.7965242 119.3534102
  44.4918657  46.4155429 118.9004574  45.6377483  46.3464603 119.8874024
  48.2841949  46.0802392 120.4842685  49.2172622  46.0147953 120.6875560
  48.1965162  46.9158658 120.0257217  50.9129966  45.3968262 117.4446632
  50.8343598  45.0628126 118.3382390  51.7339633  45.8890030 117.4438104
  48.4833918  42.7136257 117.0656610  49.1869768  42.9186260 117.6814266
  47.7596567  43.2813019 117.3305694  50.3920615  43.1518787 119.1155071
  51.2266219  42.7199985 118.9332545  50.2304958  42.9800800 120.0431965
  59.0204890  53.6688438 129.2110247  59.6583300  53.5495185 128.5073587
  58.9025733  54.6169282 129.2698199  55.8294597  53.6215866 129.1471772
  55.4913108  53.5056931 128.2592307  56.6984365  53.2207031 129.1272778
  51.6881412  55.4751342 125.1368663  51.1246277  55.3841279 124.3684951
  51.5733807  54.6551247 125.6171155  57.2680971  59.1422310 120.4483128
  56.6168951  59.7276390 120.0617142  58.0625334  59.6728505 120.5078165
  51.1936598  56.2311447 120.8470262  51.9667474  55.6840434 120.7083138
  51.5461997  57.0955696 121.0584724  53.5302876  52.3904113 118.4788712
  53.7828397  51.8685634 117.7172175  52.5927435  52.2270259 118.5815396
  58.5746159  51.3939892 126.2863455  59.3609248  50.9759315 125.9353872
  58.8384863  52.2985984 126.4545104  58.7456236  56.8312742 120.9852112
  58.1102069  56.9047368 121.6973017  58.4153643  57.4206341 120.3071191
  63.9754586  51.3315125 127.1896434  64.7079758  50.7614342 127.4234263
  63.2193942  50.9436725 127.6302939  53.2499165  54.2932219 120.6813087
  53.1335423  53.6177123 121.3494171  53.3601425  53.8064593 119.8645240
  55.5930706  53.7542366 124.3859776  55.2288913  53.2272987 125.0972698
  56.4497822  53.3640835 124.2126262  55.2336193  48.7832266 119.3821125
  55.4010595  49.6512502 119.7491596  55.0433362  48.9459548 118.4582414
  57.9911526  57.2449245 131.0486955  57.6912249  58.1474284 130.9402762
  57.6462585  56.9781428 131.9008108  61.3908670  49.7631785 128.7284392
  60.4825547  49.6947193 128.4343153  61.3396265  50.2403730 129.5566218
  55.2125413  51.2389923 120.3667792  55.0925039  51.6846974 121.2053272
  54.5178002  51.5875241 119.8081330  52.9732306  64.0093565 124.0157923
  52.8956335  64.9601390 124.0946403  52.3693949  63.6639438 124.6732849
  60.9110480  51.7111397 121.1948126  61.8228336  51.9438783 121.0195823
  60.4020127  52.2948441 120.6323204  59.5180062  56.6937215 128.5861707
  58.8888924  56.8582929 127.8837775  59.1305724  57.1078825 129.3572671
  63.3969294  57.6291653 125.9406071  62.7120332  58.0090554 125.3903104
  63.4813143  58.2386980 126.6738019  55.0708024  56.4311623 125.8511792
  55.5346369  56.7099326 125.0616415  54.8064822  55.5295068 125.6684883
  54.0076910  52.5534776 122.6601357  54.7100953  53.0055819 123.1275284
  53.6757538  51.9118594 123.2881250  61.7666053  58.1523567 130.7123772
  62.5883497  57.7503755 130.4306453  61.7628456  58.0491802 131.6639888
  69.8572046  54.4962316 127.0608743  69.1035755  53.9269714 126.9052748
  69.9919588  54.4624980 128.0079378  55.2470674  59.3675718 122.7363463
  55.1116349  60.2127254 123.1648310  55.7880487  59.5694996 121.9729396
  48.7000072  56.8851156 123.3091388  49.2124592  57.6794406 123.4596952
  49.3522785  56.1877447 123.2424989  50.5094957  60.0016912 125.3914141
  50.6861585  60.9234877 125.2035125  51.3051790  59.6875332 125.8208521
  51.6326272  61.5195086 131.3924483  52.1833697  61.3912150 130.6201477
  50.7937748  61.8189975 131.0419376  46.6648989  55.2139810 124.0850958
  47.5024211  55.6236819 123.8684666  46.8427256  54.2739253 124.0551152
  58.5613421  52.8814891 119.7734791  58.0460044  53.6519496 120.0123179
  58.2890729  52.2080027 120.3967853  56.1460532  47.7264592 124.8320030
  55.2902128  47.3371442 124.6525668  56.5587484  47.8056553 123.9719815
  63.5347695  55.6347246 121.7087965  62.7577138  55.2958405 121.2643127
  64.2139176  55.6399869 121.0342930  58.3499724  50.7541983 121.5994572
  58.0449860  51.0688132 122.4504716  59.3030166  50.8323403 121.6421905
  56.7946156  56.9132207 123.2487526  56.2667517  56.1784966 122.9360764
  56.2933659  57.6906883 123.0027495  61.7739002  55.1081227 128.3654573
  61.1162676  55.7980488 128.4534701  62.5779401  55.4977659 128.7088559
  60.5844461  53.4625600 126.4158514  61.0976342  54.0955592 126.9180224
  61.2345684  52.8626795 126.0501874  51.8534470  49.6056334 119.6290023
  51.0171783  49.9431020 119.9499298  51.7139240  49.4705314 118.6917160
  54.9398756  54.7312417 116.2522499  54.0325818  54.5001670 116.4513648
  55.4369788  53.9350036 116.4396481  57.8466835  63.4409924 119.1719186
  57.1728534  63.7441621 119.7804143  58.2332657  64.2439004 118.8224643
  57.8460339  52.3366471 123.7919535  58.5932158  52.8487868 123.4826657
  58.1151929  52.0150524 124.6523929  56.1186989  54.8325012 120.7746489
  55.2098209  54.5484045 120.8718959  56.1482073  55.2524090 119.9149796
  61.3506257  58.4431601 124.5437657  60.8968584  57.6022511 124.6002847
  60.7200224  59.0793000 124.8812437  60.2939176  49.3723587 125.7738324
  59.5561933  48.8600973 126.1048567  60.5465950  48.9323969 124.9621601
  59.7939196  60.2808098 125.4787475  60.0862170  60.8413155 124.7599841
  60.3037817  60.5736659 126.2340634  54.6671883  52.4453632 126.8756285
  54.7220493  51.4927469 126.7998761  53.8563085  52.6013071 127.3597583
  55.8163077  56.3733755 118.1134568  55.3782507  55.6569614 117.6540205
  56.5573518  56.6009870 117.5519659  52.6064243  51.0630692 124.6346664
  51.7932109  51.3624863 125.0411856  53.1023238  50.6686381 125.3521146
  54.7572821  61.0588449 126.5680928  54.7149000  61.2849295 125.6389460
  55.6735520  60.8251824 126.7166729  63.9336192  54.6490952 124.1710887
  63.7954091  54.8392548 123.2432076  63.5772411  55.4110335 124.6278938
  63.9605572  56.7167479 129.1822158  64.3942078  56.6242769 130.0305212
  64.6737152  56.6924980 128.5442174  52.8738622  57.9351478 126.3642891
  53.6679221  57.4401798 126.1625466  52.1630314  57.4069341 126.0010597
  57.6933466  60.3169574 130.7155259  57.7470489  60.8860510 131.4832975
  56.8248248  60.4871459 130.3509296  49.1821385  52.0794560 122.4402644
  48.2518974  52.0179015 122.6572606  49.2778857  51.5570512 121.6439285
  64.8221121  56.7591180 131.7155043  65.0157011  57.6636991 131.9614318
  64.7221739  56.2998599 132.5493629  55.4509898  58.5080500 130.0440728
  55.3120984  58.1399284 130.9166666  54.6624494  59.0228139 129.8724686
  56.0458050  63.6089596 121.3866265  56.2209806  63.1377640 122.2011887
  55.3590838  64.2355363 121.6147525  57.0015113  57.8862103 127.4329566
  56.6664946  57.8462873 128.3287216  56.5019059  57.2206819 126.9599976
  59.9374305  55.2318137 117.7066626  59.3203475  54.5064965 117.6099678
  59.4690793  55.9927497 117.3633700  50.6119135  66.7578959 128.1606125
  50.8515733  67.3897483 128.8385143  49.7688332  66.4066999 128.4471484
  51.7272851  49.4503561 116.8287930  50.8502317  49.3292362 116.4650177
  52.2030604  48.6589640 116.5766819  55.1246997  62.5658082 130.5647629
  55.0517169  63.3713053 131.0766933  54.6824390  62.7650047 129.7395650
  54.9136777  61.8029852 124.0750450  54.1304299  62.3451532 124.1688675
  55.6129522  62.3203831 124.4744692  58.2233427  47.6124481 126.7184656
  58.7202126  46.8594443 126.3985726  57.4520408  47.6488798 126.1527865
  66.0763184  53.3164847 128.3602947  66.0653061  54.1989562 127.9896880
  65.2080564  52.9636397 128.1657484  57.5845681  62.4644916 132.7205787
  58.2973653  63.0992380 132.6481689  57.0935709  62.5608782 131.9045789
  59.3063208  56.3696168 124.2923079  58.3719486  56.4897631 124.1227783
  59.4839876  55.4668635 124.0283089  62.6935759  52.2113488 124.8273113
  63.1596211  53.0441479 124.7533416  63.1443259  51.7458469 125.5318372
  60.7611990  58.5557309 121.8259265  61.0371834  58.4413904 122.7353139
  59.8916489  58.1574794 121.7871438  57.3966054  62.8043660 125.4692079
  57.5788449  61.9865316 125.9319831  58.2199040  63.0211352 125.0316969
  57.7308220  61.7311845 122.7307127  58.2595986  61.2204299 122.1177290
  57.9936439  61.4154375 123.5952660  51.0863967  62.7826962 125.4904903
  50.4174343  63.2673089 125.0068943  50.9476837  63.0296182 126.4048282
  55.2269236  64.8170705 132.0887562  55.7787544  64.9802327 132.8536647
  55.5675430  65.4075143 131.4167587  46.4551545  51.0445417 122.2700836
  46.7504986  50.1356095 122.2167889  45.5539580  51.0233156 121.9481838
  58.3637623  62.7652681 129.0751244  58.2388763  61.9642420 128.5662189
  59.0216714  63.2598874 128.5865214  60.4272532  60.5661701 130.7030794
  59.4802867  60.4467052 130.6309121  60.7755305  59.6784199 130.7857055
  48.1839386  48.7259514 122.3940161  47.8552092  47.8456893 122.2115267
  48.5378757  48.6707183 123.2816550  57.4318965  60.3614417 126.9035146
  57.2843927  59.4331124 127.0842716  58.2572459  60.3834508 126.4192221
  51.2981209  49.0132484 122.7615638  51.6377282  49.5418405 122.0394247
  51.7453330  49.3512890 123.5374205  61.0353087  61.1842976 127.9900019
  61.9599634  60.9785837 127.8524470  60.8668390  60.9359377 128.8989360
  53.2849356  47.5107106 120.9608931  54.0057719  47.8888358 120.4572648
  52.6614661  48.2295982 121.0643909  57.4280479  48.2152255 121.8967263
  57.6444094  49.0976892 121.5956092  56.9474546  47.8238468 121.1672905
  60.8248403  61.7028643 123.3462110  60.9985281  61.1375066 122.5935963
  61.3177294  62.5029538 123.1641600  53.4312980  47.0454896 123.7906468
  53.5528891  46.1171542 123.9897355  53.1415022  47.0593582 122.8784783
  66.6787794  54.4665066 124.9652410  67.1218940  53.7172391 124.5671533
  65.8014305  54.4575202 124.5826142  61.8123576  61.0195408 120.4459009
  62.5074480  61.6402100 120.6646323  62.1546726  60.1690759 120.7211387
  63.7114999  58.4695113 121.9746339  64.2366323  58.8082386 121.2495659
  63.6237351  57.5342128 121.7909474  55.3955659  64.5367096 126.3341593
  54.9560650  64.0443475 127.0274449  56.1463776  63.9940064 126.0933668
  47.8747998  60.7278637 126.3366221  48.7006018  60.4282409 125.9564864
  47.5242050  59.9586260 126.7856009  52.8429532  60.0805105 128.4063894
  52.2209541  59.4175810 128.1066122  53.5134398  60.1066237 127.7237542
  46.0756603  58.6464964 127.2955154  45.2388512  58.2187138 127.1139156
  46.0480249  58.8397407 128.2325946  52.4043038  58.6309029 121.8822355
  52.5531159  59.3144493 121.2289028  53.2109482  58.6114119 122.3971811
  65.0224977  58.3717425 134.8372288  64.7309785  58.7347405 135.6735748
  64.4097108  57.6584433 134.6585620  66.2220659  55.9370304 127.3574858
  67.0567550  56.3760108 127.5212418  66.3579788  55.4608958 126.5383104
  50.1595671  54.6574206 122.8883424  49.9141713  53.7536536 123.0863634
  50.3291586  54.6591357 121.9462902  49.4291319  50.3902564 120.3869585
  48.7360564  50.4646919 119.7309621  49.1843071  49.6262908 120.9091102
  55.9038444  61.1257159 119.3534102  55.3312411  61.7447346 118.9004574
  56.4771238  61.6756521 119.8874024  59.1235704  61.4094309 120.4842685
  60.0566377  61.3439871 120.6875560  59.0358917  62.2450576 120.0257217
  61.7523720  60.7260180 117.4446632  61.6737352  60.3920043 118.3382390
  62.5733387  61.2181948 117.4438104  64.4501912  53.5921919 130.6522951
  64.4178232  52.6537920 130.8382635  65.0602535  53.6705956 129.9188776
  56.2885243  52.4617972 116.6950155  57.2344347  52.3324180 116.7638573
  55.9099487  51.7232634 117.1719583  70.2678461  54.6537926 129.7928988
  70.9981850  54.3923214 130.3536691  69.6585407  53.9166648 129.8331056
  68.3493759  52.7945788 130.3903439  67.6226922  52.6601753 129.7819930
  67.9341045  53.1022617 131.1960157  54.4728160  50.3867948 116.6305040
  53.5659615  50.0901061 116.7067754  54.7504141  50.0897766 115.7639326
  56.0890225  44.9304838 122.7849281  55.2790954  44.5851923 123.1604527
  56.7774642  44.6212382 123.3736893  53.2426944  47.2454884 116.7717019
  54.1046108  47.5709782 117.0312837  53.4277288  46.4586379 116.2590085
  61.3959581  46.1183410 123.9152242  60.8158250  46.7768214 123.5330295
  61.1295513  45.2960755 123.5039660  60.1784459  48.2783500 122.9708590
  59.2910314  48.5633151 122.7528785  60.5938448  48.1177264 122.1235867
  63.5298995  48.3030021 126.6862930  64.3059385  48.7926474 126.9587547
  62.8047129  48.7288076 127.1434799  65.9671554  49.0157641 127.7436870
  66.5616044  48.7753377 127.0330179  66.0398137  48.2964771 128.3710407
  48.1868709  62.8591252 128.0580035  48.0523177  62.0991652 127.4918033
  47.7700772  63.5832151 127.5908824  59.3227672  58.0428175 117.0656610
  60.0263522  58.2478178 117.6814266  58.5990321  58.6104937 117.3305694
  60.1525483  53.7938036 123.1858881  60.0960684  54.2506588 122.3466513
  60.7053825  53.0328721 123.0081723  63.9630288  49.5827768 124.0109000
  63.7067223  49.1824404 124.8417208  63.3383156  50.2971562 123.8859139
  68.2742626  52.3223841 126.5180292  67.7142184  52.3917031 127.2911854
  67.6686130  52.1464826 125.7979788  51.3437835  63.7560569 128.2698478
  51.2270219  64.7006001 128.1677168  50.5230281  63.4534130 128.6584277
  61.2314370  58.4810704 119.1155071  62.0659974  58.0491903 118.9332545
  61.0698713  58.3092718 120.0431965  60.8860262  54.9842818 120.4811410
  60.8309066  54.8187089 119.5399854  60.2606317  55.6918850 120.6373600
  54.1956387  44.4850927 120.0596728  54.1835057  45.4292766 120.2164999
  55.0879809  44.3021072 119.7656189  52.3692349  64.4088830 131.4854406
  53.2719596  64.4412441 131.8020901  52.1429719  63.4789281 131.5000742
  54.1245951  63.1619817 128.1464485  53.1741582  63.1621679 128.0328857
  54.4278437  62.4152552 127.6300519  66.6688351  68.9507783 129.1471772
  66.3306863  68.8348848 128.2592307  67.5378119  68.5498949 129.1272778
  62.5275167  70.8043260 125.1368663  61.9640032  70.7133197 124.3684951
  62.4127562  69.9843164 125.6171155  60.0739599  72.2994451 127.9752883
  60.8660891  71.9585276 127.5599183  60.3136249  72.4089427 128.8955037
  68.1074725  74.4714228 120.4483128  67.4562705  75.0568308 120.0617142
  68.9019088  75.0020423 120.5078165  62.0330353  71.5603365 120.8470262
  62.8061229  71.0132352 120.7083138  62.3855751  72.4247614 121.0584724
  64.3696630  67.7196031 118.4788712  64.6222151  67.1977552 117.7172175
  63.4321190  67.5562176 118.5815396  69.4139913  66.7231809 126.2863455
  70.2003002  66.3051232 125.9353872  69.6778618  67.6277901 126.4545104
  69.5849991  72.1604660 120.9852112  68.9495824  72.2339286 121.6973017
  69.2547397  72.7498258 120.3071191  74.8148340  66.6607042 127.1896434
  75.5473512  66.0906259 127.4234263  74.0587696  66.2728643 127.6302939
  64.0892919  69.6224137 120.6813087  63.9729177  68.9469040 121.3494171
  64.1995179  69.1356511 119.8645240  66.4324460  69.0834284 124.3859776
  66.0682667  68.5564905 125.0972698  67.2891576  68.6932753 124.2126262
  72.3373761  60.3728617 131.6491042  72.0057085  61.2424028 131.4252257
  71.7419374  60.0564901 132.3285073  66.0729947  64.1124184 119.3821125
  66.2404349  64.9804420 119.7491596  65.8827116  64.2751465 118.4582414
  62.2817762  69.0254959 127.0823660  61.3568258  68.8931173 127.2901351
  62.5302175  69.8049179 127.5793602  66.0519168  66.5681841 120.3667792
  65.9318793  67.0138892 121.2053272  65.3571756  66.9167159 119.8081330
  59.6426573  68.6688233 127.9167449  59.7718954  68.9222712 128.8306860
  58.9624024  69.2615941 127.5972104  63.8126060  79.3385483 124.0157923
  63.7350090  80.2893308 124.0946403  63.2087704  78.9931355 124.6732849
  71.7504234  67.0403314 121.1948126  72.6622090  67.2730701 121.0195823
  71.2413881  67.6240359 120.6323204  69.0940209  63.2161350 129.4437987
  68.2324688  63.5142604 129.7354724  69.1202644  63.4331749 128.5119019
  65.9101778  71.7603541 125.8511792  66.3740124  72.0391244 125.0616415
  65.6458576  70.8586985 125.6684883  62.8025859  71.3075022 128.7891555
  63.3727216  71.7362291 128.1509040  63.3933971  71.0257607 129.4875741
  64.8470664  67.8826693 122.6601357  65.5494708  68.3347737 123.1275284
  64.5151293  67.2410512 123.2881250  58.5895998  66.1410246 127.9618491
  57.7995052  66.3967774 127.4858602  59.0807246  66.9558584 128.0670531
  60.5410744  66.5054825 124.9201968  59.7441907  66.6173519 125.4385463
  60.3136336  66.8441477 124.0542858  56.8733701  66.3940736 130.3933482
  57.1241740  67.2787746 130.6591058  57.4093250  66.2145338 129.6208574
  66.0864429  74.6967636 122.7363463  65.9510104  75.5419172 123.1648310
  66.6274241  74.8986913 121.9729396  59.5393826  72.2143074 123.3091388
  60.0518347  73.0086324 123.4596952  60.1916539  71.5169364 123.2424989
  61.3488711  75.3308830 125.3914141  61.5255339  76.2526795 125.2035125
  62.1445545  75.0167249 125.8208521  69.4356893  58.2198198 131.2662356
  69.0921162  59.1099839 131.1901467  69.8035855  58.0299855 130.4031941
  57.5042743  70.5431728 124.0850958  58.3417965  70.9528737 123.8684666
  57.6821011  69.6031170 124.0551152  69.4007175  68.2106809 119.7734791
  68.8853799  68.9811413 120.0123179  69.1284484  67.5371945 120.3967853
  66.9854286  63.0556510 124.8320030  66.1295883  62.6663360 124.6525668
  67.3981238  63.1348470 123.9719815  68.5153433  60.5902853 129.2311589
  68.0118229  60.5532988 128.4179395  68.8084040  61.4995596 129.2908246
  64.7596319  60.6741583 128.2377771  65.6249316  60.4784391 127.8783660
  64.8273828  60.4451934 129.1647128  74.3741449  70.9639163 121.7087965
  73.5970892  70.6250323 121.2643127  75.0532930  70.9691787 121.0342930
  69.1893478  66.0833901 121.5994572  68.8843614  66.3980050 122.4504716
  70.1423921  66.1615321 121.6421905  67.6339910  72.2424124 123.2487526
  67.1061272  71.5076884 122.9360764  67.1327413  73.0198801 123.0027495
  62.3658638  62.9043791 125.6094138  62.9402390  62.6818972 124.8767331
  62.9529620  62.9732485 126.3622739  71.4238215  68.7917517 126.4158514
  71.9370097  69.4247509 126.9180224  72.0739439  68.1918713 126.0501874
  62.6928225  64.9348252 119.6290023  61.8565537  65.2722938 119.9499298
  62.5532995  64.7997231 118.6917160  64.6681306  59.7785039 124.3369207
  64.0145718  59.4634057 123.7125822  64.6261780  59.1560780 125.0629030
  65.7792510  70.0604335 116.2522499  64.8719572  69.8293588 116.4513648
  66.2763542  69.2641954 116.4396481  68.6860589  78.7701842 119.1719186
  68.0122288  79.0733538 119.7804143  69.0726411  79.5730922 118.8224643
  67.9019046  66.2666973 128.6616855  66.9841607  66.4881920 128.5038543
  68.3179190  66.3413283 127.8028562  68.6854094  67.6658389 123.7919535
  69.4325913  68.1779786 123.4826657  68.9545683  67.3442441 124.6523929
  66.9580744  70.1616929 120.7746489  66.0491963  69.8775962 120.8718959
  66.9875828  70.5816008 119.9149796  71.1332931  64.7015505 125.7738324
  70.3955688  64.1892891 126.1048567  71.3859704  64.2615887 124.9621601
  71.2344558  57.4791757 126.3680094  71.5403435  56.6189120 126.0806009
  71.9597163  58.0709377 126.1679088  57.5268914  67.8822443 124.7561692
  57.3293314  67.2891804 124.0312758  56.9715578  67.5774654 125.4737630
  65.5065638  67.7745550 126.8756285  65.5614248  66.8219386 126.7998761
  64.6956840  67.9304989 127.3597583  66.6556832  71.7025673 118.1134568
  66.2176262  70.9861532 117.6540205  67.3967273  71.9301788 117.5519659
  63.4457998  66.3922610 124.6346664  62.6325863  66.6916780 125.0411856
  63.9416992  65.9978298 125.3521146  74.7729946  69.9782870 124.1710887
  74.6347845  70.1684466 123.2432076  74.4166165  70.7402253 124.6278938
  62.9372073  63.9640965 130.2507899  63.5771452  63.8229724 129.5530862
  62.1049603  63.6775479 129.8746501  63.7132377  73.2643396 126.3642891
  64.5072975  72.7693716 126.1625466  63.0024069  72.7361259 126.0010597
  60.0215140  67.4086477 122.4402644  59.0912728  67.3470933 122.6572606
  60.1172612  66.8862430 121.6439285  59.9400689  63.9341290 125.0280885
  60.2007506  64.8486623 124.9190046  60.7617861  63.4665733 125.1777498
  61.4125614  65.3479047 132.1979710  62.0848668  65.1396410 131.5492359
  60.5855401  65.1501133 131.7584942  66.8851804  78.9381514 121.3866265
  67.0603560  78.4669557 122.2011887  66.1984593  79.5647280 121.6147525
  70.7768059  70.5610055 117.7066626  70.1597230  69.8356883 117.6099678
  70.3084548  71.3219415 117.3633700  62.5666605  64.7795479 116.8287930
  61.6896072  64.6584280 116.4650177  63.0424358  63.9881557 116.5766819
  54.0868745  69.5672639 126.9229437  54.7739785  69.2534369 126.3350452
  53.9316874  70.4714003 126.6496688  58.8903467  64.4562835 131.3514461
  58.8061656  63.8488505 130.6164871  58.0686174  64.9471854 131.3523957
  65.7530531  77.1321769 124.0750450  64.9698053  77.6743450 124.1688675
  66.4523276  77.6495749 124.4744692  69.0627181  62.9416399 126.7184656
  69.5595881  62.1886361 126.3985726  68.2914163  62.9780715 126.1527865
  70.1456962  71.6988086 124.2923079  69.2113241  71.8189548 124.1227783
  70.3233631  70.7960553 124.0283089  65.6462150  65.0833782 126.4456340
  65.2759938  64.5304822 127.1337246  66.1421243  64.4791915 125.8931340
  73.5329513  67.5405405 124.8273113  73.9989966  68.3733397 124.7533416
  73.9837014  67.0750387 125.5318372  71.6005745  73.8849227 121.8259265
  71.8765588  73.7705821 122.7353139  70.7310243  73.4866711 121.7871438
  71.5046176  59.9085992 128.8664015  70.5909256  60.1390219 129.0346222
  71.9339278  59.9924436 129.7178047  68.5701974  77.0603763 122.7307127
  69.0989740  76.5496217 122.1177290  68.8330194  76.7446293 123.5952660
  53.6636721  67.6473232 129.1946904  53.7020821  67.1136823 129.9884022
  53.1577014  67.1208438 128.5757881  61.0427484  62.4937773 132.6909446
  61.1068810  63.3552603 132.2786844  60.9794604  61.8811774 131.9581805
  57.2945299  66.3737334 122.2700836  57.5898740  65.4648013 122.2167889
  56.3933335  66.3525074 121.9481838  60.8239546  64.4493331 128.2528384
  60.1026132  65.0629299 128.1135857  61.6132802  64.9851096 128.1745030
  59.0233141  64.0551432 122.3940161  58.6945847  63.1748811 122.2115267
  59.3772511  63.9999101 123.2816550  62.1374964  64.3424402 122.7615638
  62.4771036  64.8710323 122.0394247  62.5847084  64.6804808 123.5374205
  64.8318405  62.7261452 132.2118706  64.4915225  61.9269265 132.6139386
  64.1257411  63.0263163 131.6395540  65.4834876  59.8110765 130.6646029
  66.3060946  59.3371243 130.5424920  65.7272940  60.5901249 131.1644716
  64.1243111  62.8399023 120.9608931  64.8451473  63.2180276 120.4572648
  63.5008415  63.5587900 121.0643909  68.2674234  63.5444172 121.8967263
  68.4837848  64.4268810 121.5956092  67.7868301  63.1530386 121.1672905
  63.0073455  66.5029885 128.4738008  62.8618036  66.8170189 129.3662290
  62.5298659  67.1214786 127.9208907  64.8669838  63.4932433 128.5218898
  64.8531407  62.5973527 128.1851196  65.5842266  63.5003097 129.1557184
  66.7195969  63.9269774 130.5672025  66.4613747  64.8486844 130.5656355
  66.1881009  63.5300208 131.2572489  57.4819117  69.0435230 131.4125669
  56.9372585  69.8195038 131.5445944  58.3598467  69.3906034 131.2544791
  64.2706734  62.3746814 123.7906468  64.3922645  61.4463460 123.9897355
  63.9808776  62.3885500 122.8784783  67.1397924  60.0601724 126.9273188
  67.1619621  60.1241057 125.9725167  67.5565983  59.2206233 127.1213694
  72.6517330  76.3487325 120.4459009  73.3468235  76.9694018 120.6646323
  72.9940480  75.4982676 120.7211387  74.5508753  73.7987031 121.9746339
  75.0760077  74.1374303 121.2495659  74.4631106  72.8634046 121.7909474
  58.7141753  76.0570555 126.3366221  59.5399773  75.7574327 125.9564864
  58.3635805  75.2878177 126.7856009  56.9150358  73.9756881 127.2955154
  56.0782266  73.5479056 127.1139156  56.8874003  74.1689325 128.2325946
  63.2436793  73.9600946 121.8822355  63.3924913  74.6436411 121.2289028
  64.0503236  73.9406036 122.3971811  60.9989426  69.9866124 122.8883424
  60.7535468  69.0828454 123.0863634  61.1685340  69.9883275 121.9462902
  68.6886136  60.8589800 132.2708179  69.2068080  61.5950827 131.9454668
  68.3341269  61.1653794 133.1054939  60.2685073  65.7194482 120.3869585
  59.5754318  65.7938837 119.7309621  60.0236825  64.9554825 120.9091102
  68.9398730  57.2790083 127.7909076  69.2200484  56.6113272 128.4169503
  69.7249337  57.4719179 127.2783740  66.7432199  76.4549077 119.3534102
  66.1706166  77.0739264 118.9004574  67.3164992  77.0048439 119.8874024
  69.9629458  76.7386227 120.4842685  70.8960131  76.6731789 120.6875560
  69.8752671  77.5742494 120.0257217  72.5917475  76.0552097 117.4446632
  72.5131106  75.7211961 118.3382390  73.4127142  76.5473865 117.4438104
  67.1278997  67.7909890 116.6950155  68.0738102  67.6616098 116.7638573
  66.7493242  67.0524552 117.1719583  73.1000882  59.4565896 126.6577047
  72.9025703  59.1480984 127.5420379  73.7100587  60.1827535 126.7874976
  65.3121914  65.7159866 116.6305040  64.4053370  65.4192979 116.7067754
  65.5897895  65.4189684 115.7639326  56.2299855  67.0366229 127.0804086
  55.9102639  66.1831538 126.7878460  55.6833283  67.2514808 127.8362054
  60.0079762  69.7528670 130.7973593  60.2265772  70.6845778 130.8161627
  60.4205536  69.3936645 131.5828397  66.9283980  60.2596756 122.7849281
  66.1184708  59.9143841 123.1604527  67.6168397  59.9504299 123.3736893
  68.8574528  59.3374803 124.4073578  69.4105567  59.7570256 125.0663601
  69.0944615  58.4110551 124.4496534  64.0820699  62.5746801 116.7717019
  64.9439863  62.9001700 117.0312837  64.2671043  61.7878297 116.2590085
  56.0988115  70.6569141 129.0497208  55.4051586  70.2423094 128.5367162
  56.8461106  70.6989677 128.4530627  72.2353335  61.4475328 123.9152242
  71.6552004  62.1060132 123.5330295  71.9689268  60.6252672 123.5039660
  70.6856902  60.8480385 126.1173563  71.1856680  60.9596920 125.3087881
  71.3292510  60.5441438 126.7574371  58.0124857  70.5887395 126.9263223
  57.9895545  70.6875082 125.9745106  58.3225494  71.4352545 127.2480389
  71.0178213  63.6075418 122.9708590  70.1304068  63.8925069 122.7528785
  71.4332202  63.4469181 122.1235867  74.3692749  63.6321939 126.6862930
  75.1453140  64.1218392 126.9587547  73.6440884  64.0579993 127.1434799
  76.8065308  64.3449558 127.7436870  77.4009799  64.1045294 127.0330179
  76.8791892  63.6256689 128.3710407  70.1621427  73.3720093 117.0656610
  70.8657277  73.5770095 117.6814266  69.4384076  73.9396855 117.3305694
  70.9919237  69.1229954 123.1858881  70.9354438  69.5798505 122.3466513
  71.5447579  68.3620639 123.0081723  74.8024043  64.9119686 124.0109000
  74.5460977  64.5116322 124.8417208  74.1776911  65.6263480 123.8859139
  72.0708124  73.8102622 119.1155071  72.9053728  73.3783820 118.9332545
  71.9092467  73.6384636 120.0431965  71.7254016  70.3134735 120.4811410
  71.6702820  70.1479007 119.5399854  71.1000072  71.0210768 120.6373600
  56.5146531  65.5502800 134.3072832  57.1605395  65.0401754 134.7960057
  56.3063682  66.2871481 134.8816257  65.0350142  59.8142844 120.0596728
  65.0228812  60.7584684 120.2164999  65.9273564  59.6312990 119.7656189
  68.8502261  56.4085621 124.3142665  68.0834657  55.8544108 124.4599347
  69.2612966  56.4807490 125.1756817  73.5321979  80.2640169 119.6290023
  72.6959292  80.6014856 119.9499298  73.3926749  80.1289149 118.6917160
  73.4060360  80.1087397 116.8287930  72.5289826  79.9876197 116.4650177
  73.8818113  79.3173475 116.5766819  71.1078828  81.0486399 120.3869585
  70.4148073  81.1230754 119.7309621  70.8630580  80.2846743 120.9091102
  76.1515669  81.0451784 116.6305040  75.2447124  80.7484896 116.7067754
  76.4291650  80.7481602 115.7639326  74.9214453  77.9038719 116.7717019
  75.7833617  78.2293617 117.0312837  75.1064797  77.1170215 116.2590085
  75.8743896  75.1434762 120.0596728  75.8622566  76.0876602 120.2164999
  76.7667318  74.9604907 119.7656189  47.0073082  25.1180129 105.8964492
  46.3334780  25.4211826 106.5049450  47.3938904  25.9209209 105.5469949
  49.0980552  16.9088342 104.4311932  48.4809722  16.1835170 104.3344985
  48.6297040  17.6697702 104.0879006  50.9729822  22.6965612 107.1704315
  51.6680727  23.3172305 107.3891630  51.3152972  21.8460964 107.4456693
  45.0644691  22.8027364 106.0779409  44.4918658  23.4217551 105.6249881
  45.6377484  23.3526726 106.6119331  48.2841951  23.0864514 107.2087991
  49.2172624  23.0210076 107.4120867  48.1965163  23.9220781 106.7502524
  50.9129967  22.4030385 104.1691939  50.8343599  22.0690248 105.0627697
  51.7339634  22.8952152 104.1683411  48.4833919  19.7198380 103.7901917
  49.1869769  19.9248382 104.4059573  47.7596568  20.2875142 104.0551001
  50.3920616  20.1580909 105.8400377  51.2266220  19.7262108 105.6577852
  50.2304959  19.9862923 106.7677272  59.0204892  30.6750560 115.9355554
  59.6583301  30.5557308 115.2318894  58.9025734  31.6231404 115.9943506
  55.8294598  30.6277988 115.8717079  55.4913109  30.5119053 114.9837613
  56.6984366  30.2269153 115.8518085  51.6881413  32.4813465 111.8613970
  51.1246279  32.3903402 111.0930257  51.5733809  31.6613369 112.3416462
  57.2680972  36.1484433 107.1728434  56.6168952  36.7338513 106.7862448
  58.0625335  36.6790627 107.2323472  51.1936599  33.2373570 107.5715569
  51.9667475  32.6902557 107.4328445  51.5461998  34.1017819 107.7830030
  53.5302877  29.3966236 105.2034019  53.7828398  28.8747757 104.4417482
  52.5927436  29.2332381 105.3060702  58.5746160  28.4002014 113.0108762
  59.3609249  27.9821437 112.6599179  58.8384864  29.3048106 113.1790410
  58.7456237  33.8374864 107.7097419  58.1102070  33.9109491 108.4218323
  58.4153644  34.4268463 107.0316498  63.9754587  28.3377247 113.9141740
  64.7079759  27.7676464 114.1479570  63.2193943  27.9498848 114.3548246
  53.2499166  31.2994342 107.4058394  53.1335424  30.6239245 108.0739478
  53.3601426  30.8126716 106.5890547  55.5930707  30.7604489 111.1105083
  55.2288914  30.2335110 111.8218004  56.4497823  30.3702958 110.9371568
  55.2336194  25.7894389 106.1066431  55.4010596  26.6574625 106.4736902
  55.0433363  25.9521670 105.1827721  57.9911527  34.2511367 117.7732262
  57.6912250  35.1536406 117.6648069  57.6462587  33.9843551 118.6253415
  61.3908671  26.7693908 115.4529699  60.4825548  26.7009316 115.1588460
  61.3396267  27.2465853 116.2811525  55.2125415  28.2452046 107.0913098
  55.0925040  28.6909097 107.9298579  54.5178003  28.5937364 106.5326636
  52.9732307  41.0155688 110.7403229  52.8956337  41.9663513 110.8191710
  52.3693950  40.6701560 111.3978156  60.9110481  28.7173519 107.9193432
  61.8228337  28.9500906 107.7441130  60.4020128  29.3010563 107.3568511
  59.5180063  33.6999338 115.3107014  58.8888926  33.8645052 114.6083082
  59.1305725  34.1140947 116.0817978  63.3969295  34.6353776 112.6651378
  62.7120333  35.0152677 112.1148411  63.4813144  35.2449102 113.3983325
  55.0708025  33.4373746 112.5757099  55.5346371  33.7161449 111.7861721
  54.8064823  32.5357190 112.3930190  54.0076911  29.5596898 109.3846664
  54.7100954  30.0117942 109.8520590  53.6757540  28.9180717 110.0126557
  61.7666055  35.1585690 117.4369078  62.5883498  34.7565877 117.1551760
  61.7628457  35.0553924 118.3885194  69.8572048  31.5024438 113.7854050
  69.1035756  30.9331837 113.6298054  69.9919589  31.4687103 114.7324685
  55.2470676  36.3737841 109.4608769  55.1116351  37.2189376 109.8893617
  55.7880488  36.5757118 108.6974703  48.7000073  33.8913279 110.0336694
  49.2124594  34.6856529 110.1842259  49.3522786  33.1939569 109.9670296
  50.5094958  37.0079035 112.1159447  50.6861586  37.9297000 111.9280431
  51.3051791  36.6937454 112.5453827  51.6326273  38.5257209 118.1169790
  52.1833698  38.3974272 117.3446784  50.7937749  38.8252098 117.7664683
  46.6648990  32.2201933 110.8096265  47.5024212  32.6298941 110.5929973
  46.8427258  31.2801375 110.7796459  58.5613422  29.8877014 106.4980098
  58.0460045  30.6581618 106.7368485  58.2890730  29.2142150 107.1213159
  56.1460533  24.7326715 111.5565336  55.2902129  24.3433565 111.3770975
  56.5587485  24.8118675 110.6965122  63.5347696  32.6409368 108.4333271
  62.7577139  32.3020528 107.9888433  64.2139177  32.6461992 107.7588236
  58.3499725  27.7604106 108.3239879  58.0449861  28.0750255 109.1750022
  59.3030167  27.8385526 108.3667212  56.7946157  33.9194329 109.9732833
  56.2667519  33.1847089 109.6606070  56.2933660  34.6969006 109.7272801
  61.7739003  32.1143350 115.0899879  61.1162677  32.8042611 115.1780008
  62.5779402  32.5039782 115.4333866  60.5844462  30.4687722 113.1403821
  61.0976344  31.1017714 113.6425531  61.2345686  29.8688918 112.7747181
  51.8534472  26.6118456 106.3535330  51.0171784  26.9493143 106.6744604
  51.7139241  26.4767436 105.4162467  54.9398757  31.7374539 102.9767806
  54.0325819  31.5063793 103.1758955  55.4369789  30.9412159 103.1641788
  57.8466836  40.4472047 105.8964492  57.1728535  40.7503743 106.5049450
  58.2332658  41.2501127 105.5469949  57.8460340  29.3428594 110.5164842
  58.5932159  29.8549991 110.2071964  58.1151930  29.0212646 111.3769235
  56.1186991  31.8387134 107.4991796  55.2098210  31.5546167 107.5964266
  56.1482074  32.2586213 106.6395103  61.3506258  35.4493724 111.2682964
  60.8968585  34.6084634 111.3248154  60.7200225  36.0855122 111.6057744
  60.2939178  26.3785710 112.4983631  59.5561934  25.8663096 112.8293874
  60.5465951  25.9386091 111.6866908  59.7939197  37.2870220 112.2032782
  60.0862172  37.8475278 111.4845147  60.3037818  37.5798781 112.9585941
  54.6671885  29.4515755 113.6001591  54.7220494  28.4989591 113.5244068
  53.8563087  29.6075194 114.0842890  55.8163078  33.3795878 104.8379875
  55.3782508  32.6631737 104.3785512  56.5573519  33.6071993 104.2764966
  52.6064245  28.0692815 111.3591970  51.7932110  28.3686985 111.7657162
  53.1023239  27.6748503 112.0766453  54.7572822  38.0650572 113.2926235
  54.7149001  38.2911418 112.3634767  55.6735521  37.8313946 113.4412036
  63.9336193  31.6553075 110.8956193  63.7954092  31.8454671 109.9677382
  63.5772412  32.4172458 111.3524244  63.9605573  33.7229602 115.9067465
  64.3942080  33.6304891 116.7550519  64.6737154  33.6987102 115.2687481
  52.8738623  34.9413601 113.0888198  53.6679222  34.4463921 112.8870773
  52.1630316  34.4131464 112.7255903  57.6933468  37.3231696 117.4400565
  57.7470490  37.8922632 118.2078281  56.8248249  37.4933581 117.0754602
  49.1821387  29.0856682 109.1647950  48.2518975  29.0241138 109.3817913
  49.2778859  28.5632635 108.3684592  64.8221122  33.7653303 118.4400350
  65.0157012  34.6699113 118.6859625  64.7221741  33.3060722 119.2738935
  55.4509899  35.5142623 116.7686035  55.3120985  35.1461407 117.6411973
  54.6624495  36.0290262 116.5969993  56.0458051  40.6151719 108.1111571
  56.2209807  40.1439762 108.9257194  55.3590839  41.2417485 108.3392832
  57.0015114  34.8924225 114.1574873  56.6664947  34.8524995 115.0532522
  56.5019060  34.2268941 113.6845283  59.9374306  32.2380260 104.4311932
  59.3203477  31.5127088 104.3344985  59.4690795  32.9989620 104.0879006
  50.6119137  43.7641082 114.8851431  50.8515735  44.3959606 115.5630450
  49.7688333  43.4129122 115.1716791  51.7272852  26.4565684 103.5533237
  50.8502318  26.3354485 103.1895483  52.2030605  25.6651762 103.3012125
  55.1246998  39.5720204 117.2892935  55.0517170  40.3775176 117.8012240
  54.6824391  39.7712170 116.4640957  54.9136778  38.8091974 110.7995757
  54.1304300  39.3513654 110.8933982  55.6129523  39.3265954 111.1989998
  58.2233428  24.6186604 113.4429962  58.7202128  23.8656566 113.1231033
  57.4520410  24.6550920 112.8773172  66.0763186  30.3226969 115.0848254
  66.0653062  31.2051685 114.7142187  65.2080565  29.9698520 114.8902791
  57.5845682  39.4707038 119.4451094  58.2973654  40.1054503 119.3726996
  57.0935711  39.5670904 118.6291096  59.3063209  33.3758291 111.0168386
  58.3719488  33.4959753 110.8473090  59.4839877  32.4730758 110.7528396
  62.6935760  29.2175610 111.5518420  63.1596212  30.0503602 111.4778723
  63.1443261  28.7520592 112.2563678  60.7611991  35.5619432 108.5504572
  61.0371835  35.4476026 109.4598446  59.8916490  35.1636916 108.5116745
  57.3966055  39.8105782 112.1937386  57.5788450  38.9927438 112.6565138
  58.2199041  40.0273475 111.7562276  57.7308221  38.7373967 109.4552434
  58.2595987  38.2266422 108.8422596  57.9936440  38.4216498 110.3197967
  51.0863969  39.7889084 112.2150210  50.4174344  40.2735212 111.7314250
  50.9476838  40.0358305 113.1293589  55.2269237  41.8232828 118.8132868
  55.7787545  41.9864449 119.5781954  55.5675431  42.4137266 118.1412893
  46.4551546  28.0507539 108.9946142  46.7504987  27.1418218 108.9413196
  45.5539582  28.0295279 108.6727145  58.3637625  39.7714803 115.7996551
  58.2388764  38.9704543 115.2907496  59.0216716  40.2660997 115.3110521
  60.4272533  37.5723823 117.4276101  59.4802869  37.4529174 117.3554427
  60.7755306  36.6846321 117.5102362  48.1839387  25.7321637 109.1185467
  47.8552094  24.8519016 108.9360573  48.5378758  25.6769306 110.0061857
  57.4318966  37.3676540 113.6280453  57.2843929  36.4393247 113.8088023
  58.2572460  37.3896630 113.1437528  51.2981211  26.0194607 109.4860945
  51.6377283  26.5480528 108.7639553  51.7453331  26.3575013 110.2619512
  61.0353088  38.1905098 114.7145326  61.9599636  37.9847960 114.5769777
  60.8668391  37.9421499 115.6234667  53.2849358  24.5169228 107.6854238
  54.0057720  24.8950481 107.1817955  52.6614662  25.2358105 107.7889216
  57.4280481  25.2214377 108.6212570  57.6444095  26.1039015 108.3201398
  56.9474548  24.8300591 107.8918212  60.8248404  38.7090766 110.0707417
  60.9985282  38.1437188 109.3181270  61.3177296  39.5091661 109.8886907
  53.4312981  24.0517019 110.5151774  53.5528892  23.1233665 110.7142662
  53.1415023  24.0655705 109.6030090  66.6787795  31.4727189 111.6897717
  67.1218942  30.7234514 111.2916840  65.8014306  31.4637325 111.3071449
  61.8123577  38.0257530 107.1704315  62.5074481  38.6464223 107.3891630
  62.1546727  37.1752881 107.4456693  63.7115000  35.4757236 108.6991646
  64.2366324  35.8144508 107.9740966  63.6237352  34.5404251 108.5154781
  55.3955661  41.5429219 113.0586899  54.9560651  41.0505598 113.7519756
  56.1463778  41.0002187 112.8178975  47.8748000  37.7340760 113.0611527
  48.7006020  37.4344532 112.6810171  47.5242052  36.9648382 113.5101316
  52.8429533  37.0867228 115.1309201  52.2209542  36.4237933 114.8311429
  53.5134400  37.1128360 114.4482849  46.0756605  35.6527086 114.0200461
  45.2388513  35.2249261 113.8384462  46.0480250  35.8459530 114.9571252
  52.4043040  35.6371151 108.6067662  52.5531160  36.3206616 107.9534334
  53.2109483  35.6176241 109.1217117  65.0224978  35.3779547 121.5617594
  64.7309786  35.7409528 122.3981055  64.4097109  34.6646555 121.3830926
  66.2220660  32.9432427 114.0820164  67.0567552  33.3822231 114.2457725
  66.3579789  32.4671080 113.2628410  50.1595673  31.6636329 109.6128730
  49.9141715  30.7598659 109.8108941  50.3291587  31.6653479 108.6708208
  49.4291320  27.3964687 107.1114892  48.7360565  27.4709042 106.4554928
  49.1843072  26.6325030 107.6336409  55.9038445  38.1319282 106.0779409
  55.3312412  38.7509469 105.6249881  56.4771239  38.6818643 106.6119331
  59.1235705  38.4156432 107.2087991  60.0566378  38.3501994 107.4120867
  59.0358918  39.2512699 106.7502524  61.7523722  37.7322302 104.1691939
  61.6737353  37.3982166 105.0627697  62.5733389  38.2244070 104.1683411
  64.4501913  30.5984042 117.3768257  64.4178233  29.6600042 117.5627941
  65.0602537  30.6768078 116.6434082  56.2885244  29.4680095 103.4195461
  57.2344348  29.3386303 103.4883879  55.9099489  28.7294756 103.8964890
  70.2678463  31.6600048 116.5174294  70.9981851  31.3985337 117.0781998
  69.6585408  30.9228770 116.5576362  68.3493760  29.8007911 117.1148745
  67.6226923  29.6663876 116.5065237  67.9341047  30.1084740 117.9205463
  54.4728161  27.3930071 103.3550347  53.5659616  27.0963184 103.4313060
  54.7504142  27.0959889 102.4884633  56.0890227  21.9366961 109.5094588
  55.2790955  21.5914046 109.8849834  56.7774644  21.6274504 110.0982200
  53.2426946  24.2517006 103.4962326  54.1046110  24.5771904 103.7558143
  53.4277290  23.4648502 102.9835392  61.3959582  23.1245533 110.6397549
  60.8158251  23.7830337 110.2575601  61.1295515  22.3022877 110.2284966
  60.1784460  25.2845623 109.6953897  59.2910315  25.5695274 109.4774092
  60.5938449  25.1239386 108.8481174  63.5298996  25.3092144 113.4108236
  64.3059386  25.7988596 113.6832853  62.8047130  25.7350198 113.8680106
  65.9671555  26.0219763 114.4682177  66.5616046  25.7815499 113.7575485
  66.0398139  25.3026894 115.0955713  48.1868711  39.8653374 114.7825342
  48.0523178  39.1053775 114.2163340  47.7700773  40.5894274 114.3154131
  59.3227674  35.0490298 103.7901917  60.0263524  35.2540300 104.4059573
  58.5990322  35.6167060 104.0551001  60.1525484  30.8000159 109.9104187
  60.0960685  31.2568710 109.0711820  60.7053826  30.0390844 109.7327030
  63.9630290  26.5889891 110.7354307  63.7067224  26.1886526 111.5662514
  63.3383158  27.3033685 110.6104446  68.2742628  29.3285964 113.2425598
  67.7142186  29.3979153 114.0157160  67.6686131  29.1526949 112.5225094
  51.3437836  40.7622691 114.9943784  51.2270221  41.7068124 114.8922475
  50.5230283  40.4596253 115.3829584  61.2314371  35.4872827 105.8400377
  62.0659975  35.0554025 105.6577852  61.0698714  35.3154841 106.7677272
  60.8860263  31.9904940 107.2056716  60.8309067  31.8249212 106.2645161
  60.2606318  32.6980973 107.3618906  54.1956389  21.4913049 106.7842035
  54.1835058  22.4354889 106.9410306  55.0879810  21.3083195 106.4901496
  52.3692351  41.4150953 118.2099713  53.2719597  41.4474563 118.5266208
  52.1429721  40.4851404 118.2246049  54.1245953  40.1681940 114.8709792
  53.1741584  40.1683801 114.7574164  54.4278439  39.4214674 114.3545826
  69.8598646  46.0042478 115.9355554  70.4977056  45.8849225 115.2318894
  69.7419489  46.9523322 115.9943506  66.6688352  45.9569906 115.8717079
  66.3306864  45.8410971 114.9837613  67.5378120  45.5561071 115.8518085
  62.5275168  47.8105382 111.8613970  61.9640033  47.7195319 111.0930257
  62.4127563  46.9905287 112.3416462  67.1508135  47.1104758 121.8303284
  67.1396776  46.7157556 120.9583788  67.3128775  46.3770830 122.4237056
  60.0739600  49.3056574 114.6998190  60.8660892  48.9647399 114.2844489
  60.3136250  49.4151549 115.6200343  68.1074727  51.4776350 107.1728434
  67.4562706  52.0630431 106.7862448  68.9019090  52.0082545 107.2323472
  62.0330354  48.5665487 107.5715569  62.8061230  48.0194474 107.4328445
  62.3855753  49.4309737 107.7830030  63.8715396  49.8941870 120.7782468
  63.5805262  50.7987500 120.6629134  64.5072381  49.9358397 121.4926538
  64.7971603  47.2718718 117.3683828  65.3935176  47.0474741 116.6540791
  64.8546575  46.5303464 117.9709276  64.3696632  44.7258153 105.2034019
  64.6222152  44.2039675 104.4417482  63.4321191  44.5624299 105.3060702
  69.4139914  43.7293932 113.0108762  70.2003004  43.3113355 112.6599179
  69.6778619  44.6340024 113.1790410  69.5849992  49.1666782 107.7097419
  68.9495825  49.2401409 108.4218323  69.2547398  49.7560381 107.0316498
  74.8148342  43.6669165 113.9141740  75.5473514  43.0968382 114.1479570
  74.0587697  43.2790765 114.3548246  64.0892920  46.6286259 107.4058394
  63.9729179  45.9531163 108.0739478  64.1995180  46.1418633 106.5890547
  66.4324461  46.0896407 111.1105083  66.0682669  45.5627027 111.8218004
  67.2891577  45.6994876 110.9371568  72.3373762  37.3790739 118.3736349
  72.0057087  38.2486150 118.1497564  71.7419375  37.0627023 119.0530379
  66.0729948  41.1186306 106.1066431  66.2404351  41.9866543 106.4736902
  65.8827117  41.2813588 105.1827721  68.8305281  49.5803285 117.7732262
  68.5306005  50.4828324 117.6648069  68.4856341  49.3135468 118.6253415
  62.2817763  46.0317082 113.8068966  61.3568259  45.8993296 114.0146658
  62.5302176  46.8111301 114.3038909  72.2302425  42.0985825 115.4529699
  71.3219303  42.0301234 115.1588460  72.1790021  42.5757770 116.2811525
  66.0519169  43.5743964 107.0913098  65.9318794  44.0201014 107.9298579
  65.3571758  43.9229281 106.5326636  59.6426574  45.6750356 114.6412755
  59.7718955  45.9284834 115.5552167  58.9624025  46.2678064 114.3217410
  63.8126061  56.3447605 110.7403229  63.7350091  57.2955431 110.8191710
  63.2087705  55.9993478 111.3978156  66.3043291  43.5175471 123.3964596
  65.5276625  44.0769391 123.3867461  66.9433854  44.0032254 123.9179466
  74.0964072  40.3002264 117.2307573  73.4538452  40.5934797 116.5847368
  73.5919000  40.1855184 118.0360770  71.7504235  44.0465437 107.9193432
  72.6622091  44.2792824 107.7441130  71.2413882  44.6302481 107.3568511
  64.5589663  46.3260924 122.9582563  65.3004348  46.8645968 122.6817387
  63.8526649  46.9527213 123.1154115  70.0345003  48.4690065 121.5554725
  70.4428359  48.0272475 120.8109357  69.3122265  47.8942692 121.8088918
  66.3876073  43.4062671 118.9288282  67.2337268  43.8302085 119.0722931
  66.3274711  42.7496296 119.6226845  70.3573818  49.0291255 115.3107014
  69.7282680  49.1936969 114.6083082  69.9699480  49.4432865 116.0817978
  74.2363050  49.9645693 112.6651378  73.5514088  50.3444595 112.1148411
  74.3206899  50.5741020 113.3983325  69.5375518  41.0667040 120.5869455
  69.2936450  41.8209100 120.0503731  69.8135449  41.4452387 121.4216703
  71.4913981  47.6105652 119.2646721  71.7030876  48.2537412 118.5881102
  71.4443729  46.7767969 118.7968651  69.0940210  40.2223473 116.1683293
  68.2324689  40.5204726 116.4600031  69.1202645  40.4393872 115.2364326
  65.9101780  48.7665663 112.5757099  66.3740125  49.0453366 111.7861721
  65.6458578  47.8649108 112.3930190  62.8025861  48.3137145 115.5136862
  63.3727218  48.7424413 114.8754347  63.3933972  48.0319730 116.2121048
  64.8470666  44.8888816 109.3846664  65.5494709  45.3409859 109.8520590
  64.5151294  44.2472635 110.0126557  63.2951027  43.4800572 123.7597873
  62.6649688  44.1616853 123.9933270  63.1887115  43.3683654 122.8151012
  58.5896000  43.1472368 114.6863798  57.7995054  43.4029897 114.2103908
  59.0807247  43.9620706 114.7915838  72.6059809  50.4877608 117.4369078
  73.4277253  50.0857795 117.1551760  72.6022212  50.3845842 118.3885194
  60.5410745  43.5116948 111.6447274  59.7441908  43.6235642 112.1630770
  60.3136337  43.8503600 110.7788165  66.3716413  50.0361651 119.5929789
  66.4360845  50.4982058 120.4287961  65.6627336  49.4059016 119.7212099
  56.8733703  43.4002859 117.1178788  57.1241741  44.2849869 117.3836364
  57.4093251  43.2207460 116.3453880  80.6965802  46.8316356 113.7854050
  79.9429511  46.2623754 113.6298054  80.8313343  46.7979021 114.7324685
  66.0864430  51.7029758 109.4608769  65.9510105  52.5481294 109.8893617
  66.6274243  51.9049036 108.6974703  59.5393828  49.2205196 110.0336694
  60.0518348  50.0148447 110.1842259  60.1916540  48.5231487 109.9670296
  61.3488712  52.3370953 112.1159447  61.5255341  53.2588917 111.9280431
  62.1445546  52.0229372 112.5453827  65.4899731  39.1979217 123.7143381
  66.2309444  39.7986371 123.6347843  65.7217654  38.4556855 123.1561424
  60.6341069  44.3835585 121.9921611  60.5194584  43.4820842 122.2928710
  59.7785587  44.6299281 121.6406427  67.7132907  52.3253325 123.5909111
  67.2696761  51.5389704 123.2730016  68.3750120  52.5132475 122.9253002
  62.4720028  53.8549127 118.1169790  63.0227453  53.7266190 117.3446784
  61.6331504  54.1544016 117.7664683  69.8114145  52.6056125 121.6190513
  69.7932620  53.4265006 121.1270782  70.7334065  52.4810200 121.8440654
  66.2687199  50.1200254 122.4614021  66.8015536  49.3588543 122.2313329
  65.7401280  49.8273906 123.2038175  69.4356894  35.2260320 117.9907663
  69.0921163  36.1161962 117.9146773  69.8035856  35.0361978 117.1277248
  57.5042744  47.5493851 110.8096265  58.3417966  47.9590859 110.5929973
  57.6821012  46.6093293 110.7796459  69.4007177  45.2168931 106.4980098
  68.8853800  45.9873536 106.7368485  69.1284485  44.5434068 107.1213159
  66.9854288  40.0618632 111.5565336  66.1295884  39.6725483 111.3770975
  67.3981239  40.1410593 110.6965122  68.5153434  37.5964975 115.9556896
  68.0118230  37.5595111 115.1424701  68.8084041  38.5057718 116.0153553
  64.7596320  37.6803705 114.9623078  65.6249317  37.4846514 114.6028967
  64.8273829  37.4514057 115.8892434  74.3741451  47.9701286 108.4333271
  73.5970893  47.6312446 107.9888433  75.0532932  47.9753909 107.7588236
  69.1893480  43.0896024 108.3239879  68.8843615  43.4042173 109.1750022
  70.1423922  43.1677443 108.3667212  67.6339912  49.2486247 109.9732833
  67.1061273  48.5139006 109.6606070  67.1327414  50.0260923 109.7272801
  72.6132758  47.4435267 115.0899879  71.9556432  48.1334529 115.1780008
  73.4173157  47.8331699 115.4333866  62.3658639  39.9105913 112.3339444
  62.9402391  39.6881095 111.6012637  62.9529622  39.9794608 113.0868046
  71.4238216  45.7979640 113.1403821  71.9370098  46.4309632 113.6425531
  72.0739440  45.1980836 112.7747181  62.6928226  41.9410374 106.3535330
  61.8565539  42.2785061 106.6744604  62.5532996  41.8059354 105.4162467
  64.6681307  36.7847162 111.0614514  64.0145719  36.4696179 110.4371129
  64.6261781  36.1622902 111.7874337  65.7792512  47.0666457 102.9767806
  64.8719573  46.8355711 103.1758955  66.2763544  46.2704076 103.1641788
  68.6860591  55.7763964 105.8964492  68.0122289  56.0795661 106.5049450
  69.0726413  56.5793045 105.5469949  67.9019047  43.2729096 115.3862162
  66.9841609  43.4944043 115.2283850  68.3179191  43.3475406 114.5273869
  68.6854095  44.6720511 110.5164842  69.4325914  45.1841908 110.2071964
  68.9545685  44.3504564 111.3769235  66.9580745  47.1679052 107.4991796
  66.0491964  46.8838085 107.5964266  66.9875829  47.5878131 106.6395103
  72.1900013  50.7785641 111.2682964  71.7362340  49.9376551 111.3248154
  71.5593979  51.4147040 111.6057744  71.1332932  41.7077627 112.4983631
  70.3955689  41.1955014 112.8293874  71.3859706  41.2678009 111.6866908
  70.6332952  52.6162138 112.2032782  70.9255926  53.1767195 111.4845147
  71.1431572  52.9090699 112.9585941  71.2344559  34.4853879 113.0925400
  71.5403436  33.6251243 112.8051315  71.9597164  35.0771500 112.8924394
  57.5268916  44.8884566 111.4806998  57.3293315  44.2953927 110.7558065
  56.9715580  44.5836776 112.1982937  65.5065639  44.7807673 113.6001591
  65.5614249  43.8281509 113.5244068  64.6956841  44.9367112 114.0842890
  66.6556833  48.7087796 104.8379875  66.2176263  47.9923655 104.3785512
  67.3967274  48.9363910 104.2764966  63.4457999  43.3984732 111.3591970
  62.6325865  43.6978903 111.7657162  63.9416993  43.0040421 112.0766453
  65.5966577  53.3942489 113.2926235  65.5542756  53.6203336 112.3634767
  66.5129276  53.1605864 113.4412036  69.0432211  43.8626557 120.1906864
  69.3981599  44.0898030 121.0501330  69.6904342  44.1944934 119.5684119
  74.7729948  46.9844993 110.8956193  74.6347846  47.1746589 109.9677382
  74.4166167  47.7464375 111.3524244  62.9372074  40.9703088 116.9753205
  63.5771453  40.8291847 116.2776169  62.1049604  40.6837601 116.5991807
  74.7999327  49.0521520 115.9067465  75.2335834  48.9596809 116.7550519
  75.5130908  49.0279020 115.2687481  63.7132378  50.2705518 113.0888198
  64.5072976  49.7755838 112.8870773  63.0024070  49.7423381 112.7255903
  68.5327222  52.6523614 117.4400565  68.5864245  53.2214550 118.2078281
  67.6642004  52.8225499 117.0754602  60.0215141  44.4148600 109.1647950
  59.0912729  44.3533055 109.3817913  60.1172613  43.8924553 108.3684592
  59.9400690  40.9403413 111.7526192  60.2007508  41.8548746 111.6435353
  60.7617863  40.4727855 111.9022805  61.4125616  42.3541170 118.9225017
  62.0848669  42.1458532 118.2737665  60.5855402  42.1563256 118.4830249
  75.6614877  49.0945220 118.4400350  75.8550767  49.9991031 118.6859625
  75.5615495  48.6352639 119.2738935  67.3151188  38.9803111 120.9390677
  66.6679103  39.6793061 120.8455154  68.0852203  39.4139255 121.3066926
  70.7229986  49.2451963 124.0141231  70.5715492  49.0162515 123.0971314
  70.7134665  50.2022564 124.0272576  67.4915322  46.8183876 118.9987497
  68.4207382  46.9695035 118.8256464  67.0706352  46.9067897 118.1436144
  66.2903654  50.8434540 116.7686035  66.1514739  50.4753325 117.6411973
  65.5018250  51.3582180 116.5969993  66.8851806  55.9443637 108.1111571
  67.0603561  55.4731680 108.9257194  66.1984594  56.5709403 108.3392832
  67.8408869  50.2216143 114.1574873  67.5058702  50.1816913 115.0532522
  67.3412815  49.5560859 113.6845283  61.8153113  45.6283773 119.6827454
  61.6772911  44.8964012 120.2838993  62.7258036  45.5392673 119.4011641
  70.7768061  47.5672177 104.4311932  70.1597231  46.8419005 104.3344985
  70.3084549  48.3281538 104.0879006  64.4435414  45.3403732 119.1711133
  65.1535032  44.6996924 119.1297752  64.4004722  45.5916627 120.0937314
  72.4322192  52.2771086 122.0917713  72.3734738  51.5930306 121.4248296
  72.8341711  53.0190076 121.6398339  63.1564348  42.3268950 120.9906773
  62.6201705  41.8759689 121.6428369  62.5681056  42.4614859 120.2477237
  61.4512891  59.0932999 114.8851431  61.6909489  59.7251524 115.5630450
  60.6082087  58.7421039 115.1716791  62.5666606  41.7857602 103.5533237
  61.6896073  41.6646402 103.1895483  63.0424360  40.9943680 103.3012125
  72.4339599  50.2410670 120.3231692  71.5466378  49.9036591 120.4458091
  73.0038151  49.5093701 120.5600458  54.0868747  46.5734761 113.6474744
  54.7739786  46.2596491 113.0595759  53.9316875  47.4776126 113.3741995
  58.8903469  41.4624958 118.0759767  58.8061657  40.8550627 117.3410177
  58.0686175  41.9533976 118.0769264  65.9640753  54.9012122 117.2892935
  65.8910924  55.7067093 117.8012240  65.5218146  55.1004088 116.4640957
  65.7530532  54.1383892 110.7995757  64.9698054  54.6805572 110.8933982
  66.4523278  54.6557872 111.1989998  69.0627183  39.9478521 113.4429962
  69.5595882  39.1948484 113.1231033  68.2914164  39.9842838 112.8773172
  76.9156940  45.6518887 115.0848254  76.9046816  46.5343602 114.7142187
  76.0474319  45.2990438 114.8902791  68.4239436  54.7998956 119.4451094
  69.1367409  55.4346421 119.3726996  67.9329465  54.8962822 118.6291096
  70.1456963  48.7050209 111.0168386  69.2113242  48.8251671 110.8473090
  70.3233632  47.8022675 110.7528396  65.6462151  42.0895904 113.1701647
  65.2759939  41.5366945 113.8582553  66.1421244  41.4854038 112.6176647
  73.5329515  44.5467528 111.5518420  73.9989967  45.3795519 111.4778723
  73.9837015  44.0812509 112.2563678  63.4751350  52.5493399 120.2656665
  64.1760809  53.1829882 120.4186059  63.0046465  52.8908131 119.5052304
  71.6005746  50.8911349 108.5504572  71.8765590  50.7767944 109.4598446
  70.7310245  50.4928834 108.5116745  71.5046177  36.9148115 115.5909321
  70.5909257  37.1452342 115.7591528  71.9339279  36.9986559 116.4423354
  71.2752636  45.1038007 118.0909215  70.6224086  45.3513914 117.4361668
  71.6533016  44.2902145 117.7571693  68.2359810  55.1397700 112.1937386
  68.4182204  54.3219356 112.6565138  69.0592796  55.3565392 111.7562276
  68.5701975  54.0665885 109.4552434  69.0989742  53.5558340 108.8422596
  68.8330195  53.7508415 110.3197967  67.3240209  45.8457818 124.5775252
  66.6480846  45.7451947 125.2477628  68.1467843  45.6897032 125.0411250
  59.0719068  52.0829754 117.1987768  59.6572505  51.3373442 117.3315672
  58.8743906  52.3933711 118.0824432  61.9257723  55.1181002 112.2150210
  61.2568098  55.6027129 111.7314250  61.7870593  55.3650222 113.1293589
  53.6636723  44.6535355 115.9192211  53.7020822  44.1198945 116.7129329
  53.1577016  44.1270560 115.3003188  66.0662992  57.1524745 118.8132868
  66.6181300  57.3156367 119.5781954  66.4069185  57.7429183 118.1412893
  61.0427485  39.4999895 119.4154753  61.1068812  40.3614726 119.0032151
  60.9794605  38.8873897 118.6827112  60.5179758  41.5723028 123.0627787
  61.1451796  41.1900105 123.6765312  59.6607676  41.3537230 123.4283480
  70.9173866  51.9786003 124.6681523  71.4613770  52.5915961 124.1736478
  70.3360711  52.5365581 125.1848536  57.2945300  43.3799457 108.9946142
  57.5898741  42.4710135 108.9413196  56.3933336  43.3587196 108.6727145
  69.2031379  55.1006721 115.7996551  69.0782519  54.2996461 115.2907496
  69.8610470  55.5952914 115.3110521  60.8239547  41.4555453 114.9773691
  60.1026133  42.0691421 114.8381164  61.6132803  41.9913218 114.8990337
  71.2666287  52.9015741 117.4276101  70.3196623  52.7821092 117.3554427
  71.6149061  52.0138239 117.5102362  63.6265861  38.7909880 121.2514343
  64.1500263  39.0372176 122.0140652  63.4078194  39.6229915 120.8317480
  59.0233142  41.0613554 109.1185467  58.6945848  40.1810933 108.9360573
  59.3772513  41.0061223 110.0061857  68.2712721  52.6968457 113.6280453
  68.1237683  51.7685165 113.8088023  69.0966214  52.7188548 113.1437528
  62.1374965  41.3486524 109.4860945  62.4771038  41.8772446 108.7639553
  62.5847086  41.6866930 110.2619512  71.8746843  53.5197016 114.7145326
  72.7993390  53.3139877 114.5769777  71.7062146  53.2713417 115.6234667
  64.8318406  39.7323575 118.9364013  64.4915226  38.9331388 119.3384693
  64.1257412  40.0325286 118.3640846  65.4834878  36.8172887 117.3891336
  66.3060947  36.3433366 117.2670226  65.7272941  37.5963371 117.8890022
  64.1243112  39.8461146 107.6854238  64.8451475  40.2242399 107.1817955
  63.5008416  40.5650023 107.7889216  68.2674235  40.5506295 108.6212570
  68.4837849  41.4330933 108.3201398  67.7868302  40.1592508 107.8918212
  63.0073456  43.5092008 115.1983315  62.8618037  43.8232311 116.0907596
  62.5298660  44.1276908 114.6454213  64.8669839  40.4994556 115.2464204
  64.8531408  39.6035649 114.9096502  65.5842267  40.5065220 115.8802490
  66.7195970  40.9331896 117.2917332  66.4613748  41.8548967 117.2901662
  66.1881010  40.5362331 117.9817796  71.6642159  54.0382683 110.0707417
  71.8379036  53.4729106 109.3181270  72.1571050  54.8383578 109.8886907
  57.4819119  46.0497352 118.1370976  56.9372587  46.8257160 118.2691250
  58.3598468  46.3968157 117.9790097  64.2706735  39.3808936 110.5151774
  64.3922646  38.4525583 110.7142662  63.9808778  39.3947622 109.6030090
  67.1397926  37.0663847 113.6518494  67.1619622  37.1303180 112.6970474
  67.5565985  36.2268355 113.8459000  77.5181550  46.8019106 111.6897717
  77.9612696  46.0526432 111.2916840  76.6408060  46.7929243 111.3071449
  72.6517331  53.3549448 107.1704315  73.3468236  53.9756140 107.3891630
  72.9940481  52.5044799 107.4456693  58.2685140  45.1767249 121.0301133
  57.5266877  45.3249884 121.6165763  57.9477885  45.4375514 120.1667882
  74.5508754  50.8049153 108.6991646  75.0760079  51.1436426 107.9740966
  74.4631107  49.8696169 108.5154781  66.2128803  54.7183227 120.8281523
  66.5215930  54.4732374 121.7004222  67.0104285  54.9229865 120.3400393
  66.2349415  56.8721137 113.0586899  65.7954405  56.3797515 113.7519756
  66.9857532  56.3294104 112.8178975  58.7141754  53.0632677 113.0611527
  59.5399774  52.7636449 112.6810171  58.3635806  52.2940300 113.5101316
  63.6823287  52.4159146 115.1309201  63.0603297  51.7529851 114.8311429
  64.3528154  52.4420278 114.4482849  56.9150359  50.9819004 114.0200461
  56.0782268  50.5541178 113.8384462  56.8874005  51.1751447 114.9571252
  63.7547815  40.8940934 124.7241707  63.8035970  41.7703057 124.3419477
  64.2970329  40.3518327 124.1513350  74.2402660  51.4382057 124.0042844
  73.4498204  51.4206196 123.4647343  74.0036015  51.9770351 124.7591881
  74.3600536  48.2874523 121.3175573  74.4098540  48.1224531 122.2591095
  74.2514459  47.4201782 120.9273453  63.2436794  50.9663069 108.6067662
  63.3924915  51.6498533 107.9534334  64.0503238  50.9468159 109.1217117
  71.6504298  44.2705451 122.6334879  72.5514161  44.1311916 122.3418877
  71.7252272  44.4359906 123.5733057  65.9847103  41.6472306 121.4788066
  65.1150413  41.9405872 121.2070654  66.2206584  42.2312751 122.1995329
  75.8618732  50.7071465 121.5617594  75.5703541  51.0701445 122.3981055
  75.2490864  49.9938473 121.3830926  77.0614415  48.2724345 114.0820164
  77.8961306  48.7114149 114.2457725  77.1973543  47.7962998 113.2628410
  74.1105921  45.8304079 120.0297652  74.5860042  46.0231726 119.2216504
  73.1871486  45.8863265 119.7841036  60.9989427  46.9928247 109.6128730
  60.7535469  46.0890577 109.8108941  61.1685342  46.9945397 108.6708208
  68.6886137  37.8651923 118.9953486  69.2068081  38.6012950 118.6699975
  68.3341270  38.1715916 119.8300245  60.2685075  42.7256604 107.1114892
  59.5754320  42.8000959 106.4554928  60.0236827  41.9616948 107.6336409
  68.9398731  34.2852206 114.5154383  69.2200485  33.6175395 115.1414809
  69.7249338  34.4781301 114.0029046  66.7432200  53.4611199 106.0779409
  66.1706167  54.0801387 105.6249881  67.3164993  54.0110561 106.6119331
  72.8107590  42.7069840 118.2625958  73.7625013  42.8067937 118.2838182
  72.6411040  41.9148108 118.7724042  70.8321969  39.7925423 118.4485359
  70.2371901  40.0730435 117.7531847  70.5471666  40.2819324 119.2202100
  69.9629460  53.7448350 107.2087991  70.8960133  53.6793911 107.4120867
  69.8752672  54.5804616 106.7502524  72.5917476  53.0614220 104.1691939
  72.5131108  52.7274084 105.0627697  73.4127143  53.5535988 104.1683411
  75.2895667  45.9275959 117.3768257  75.2571988  44.9891960 117.5627941
  75.8996291  46.0059996 116.6434082  67.1278998  44.7972012 103.4195461
  68.0738103  44.6678220 103.4883879  66.7493243  44.0586674 103.8964890
  75.4390156  42.7187003 117.4226541  74.9229205  41.9345459 117.2356469
  76.3230104  42.3905719 117.5873060  73.1000883  36.4628018 113.3822353
  72.9025704  36.1543106 114.2665685  73.7100588  37.1889657 113.5120283
  81.1072217  46.9891966 116.5174294  81.8375606  46.7277254 117.0781998
  80.4979163  46.2520688 116.5576362  79.1887514  45.1299829 117.1148745
  78.4620678  44.9955794 116.5065237  78.7734801  45.4376657 117.9205463
  67.0117691  48.8489758 124.8796118  67.9320700  49.0268357 125.0736165
  66.9767274  47.9045804 124.7275818  65.3121915  42.7221989 103.3550347
  64.4053371  42.4255101 103.4313060  65.5897896  42.4251807 102.4884633
  56.2299856  44.0428352 113.8049393  55.9102640  43.1893660 113.5123767
  55.6833284  44.2576930 114.5607360  60.0079763  46.7590793 117.5218900
  60.2265773  47.6907901 117.5406933  60.4205537  46.3998767 118.3073703
  66.9283981  37.2658878 109.5094588  66.1184709  36.9205963 109.8849834
  67.6168398  36.9566422 110.0982200  68.8574529  36.3436925 111.1318885
  69.4105568  36.7632379 111.7908908  69.0944616  35.4172673 111.1741841
  64.0820700  39.5808924 103.4962326  64.9439864  39.9063822 103.7558143
  64.2671044  38.7940420 102.9835392  56.0988116  47.6631263 115.7742515
  55.4051587  47.2485216 115.2612469  56.8461107  47.7051800 115.1775934
  72.2353337  38.4537450 110.6397549  71.6552006  39.1122254 110.2575601
  71.9689269  37.6314795 110.2284966  70.6856903  37.8542508 112.8418869
  71.1856681  37.9659043 112.0333188  71.3292511  37.5503561 113.4819678
  64.7438899  45.7621138 125.7286710  64.2605980  46.5621498 125.9350599
  64.8299838  45.7729082 124.7754154  58.0124858  47.5949517 113.6508530
  57.9895546  47.6937205 112.6990413  58.3225495  48.4414668 113.9725696
  60.6712236  49.6525672 117.7655144  61.6255490  49.6209615 117.6985076
  60.4724760  49.1916296 118.5805370  61.2611618  48.2226788 120.3325942
  62.0804507  48.7170867 120.3560779  61.5348426  47.3058756 120.3043509
  71.0178215  40.6137541 109.6953897  70.1304070  40.8987191 109.4774092
  71.4332204  40.4531304 108.8481174  74.3692751  40.6384062 113.4108236
  75.1453141  41.1280514 113.6832853  73.6440885  41.0642116 113.8680106
  76.8065309  41.3511681 114.4682177  77.4009800  41.1107417 113.7575485
  76.8791893  40.6318811 115.0955713  59.0262465  55.1945292 114.7825342
  58.8916933  54.4345693 114.2163340  58.6094527  55.9186192 114.3154131
  70.1621428  50.3782215 103.7901917  70.8657278  50.5832218 104.4059573
  69.4384077  50.9458977 104.0551001  70.9919238  46.1292077 109.9104187
  70.9354440  46.5860628 109.0711820  71.5447581  45.3682761 109.7327030
  74.8024044  41.9181808 110.7354307  74.5460978  41.5178444 111.5662514
  74.1776912  42.6325602 110.6104446  79.1136382  44.6577882 113.2425598
  78.5535940  44.7271071 114.0157160  78.5079885  44.4818866 112.5225094
  62.1831591  56.0914609 114.9943784  62.0663975  57.0360041 114.8922475
  61.3624037  55.7888170 115.3829584  72.0708125  50.8164745 105.8400377
  72.9053729  50.3845943 105.6577852  71.9092468  50.6446758 106.7677272
  71.7254018  47.3196858 107.2056716  71.6702821  47.1541129 106.2645161
  71.1000073  48.0272891 107.3618906  56.5146533  42.5564922 121.0318139
  57.1605396  42.0463876 121.5205364  56.3063684  43.2933604 121.6061564
  69.0399925  49.6245770 126.5310279  69.9091084  49.7986422 126.1696914
  68.5606676  50.4440187 126.4086009  65.0350143  36.8204967 106.7842035
  65.0228813  37.7646807 106.9410306  65.9273565  36.6375112 106.4901496
  63.2086105  56.7442871 118.2099713  64.1113352  56.7766481 118.5266208
  62.9823475  55.8143322 118.2246049  64.9639707  55.4973857 114.8709792
  64.0135338  55.4975719 114.7574164  65.2672193  54.7506592 114.3545826
  68.8502263  33.4147743 111.0387972  68.0834658  32.8606230 111.1844654
  69.2612967  33.4869612 111.9002123  80.6992400  61.3334396 115.9355554
  81.3370810  61.2141143 115.2318894  80.5813243  62.2815240 115.9943506
  77.5082107  61.2861824 115.8717079  77.1700618  61.1702888 114.9837613
  78.3771875  60.8852989 115.8518085  73.3668922  63.1397300 111.8613970
  72.8033788  63.0487237 111.0930257  73.2521318  62.3197205 112.3416462
  77.9901890  62.4396675 121.8303284  77.9790531  62.0449474 120.9583788
  78.1522529  61.7062748 122.4237056  70.9133354  64.6348492 114.6998190
  71.7054646  64.2939316 114.2844489  71.1530005  64.7443467 115.6200343
  78.9468481  66.8068268 107.1728434  78.2956461  67.3922348 106.7862448
  79.7412844  67.3374463 107.2323472  72.8724108  63.8957405 107.5715569
  73.6454984  63.3486392 107.4328445  73.2249507  64.7601654 107.7830030
  74.7109151  65.2233787 120.7782468  74.4199017  66.1279418 120.6629134
  75.3466135  65.2650315 121.4926538  75.6365358  62.6010636 117.3683828
  76.2328930  62.3766658 116.6540791  75.6940329  61.8595381 117.9709276
  75.2090386  60.0550071 105.2034019  75.4615907  59.5331592 104.4417482
  74.2714945  59.8916217 105.3060702  80.2533669  59.0585849 113.0108762
  81.0396758  58.6405273 112.6599179  80.5172373  59.9631942 113.1790410
  80.4243746  64.4958700 107.7097419  79.7889579  64.5693326 108.4218323
  80.0941153  65.0852299 107.0316498  85.6542096  58.9961083 113.9141740
  86.3867268  58.4260300 114.1479570  84.8981452  58.6082683 114.3548246
  74.9286675  61.9578177 107.4058394  74.8122933  61.2823080 108.0739478
  75.0388935  61.4710551 106.5890547  77.2718216  61.4188324 111.1105083
  76.9076423  60.8918945 111.8218004  78.1285332  61.0286793 110.9371568
  83.1767516  52.7082657 118.3736349  82.8450841  53.5778068 118.1497564
  82.5813130  52.3918941 119.0530379  76.9123703  56.4478224 106.1066431
  77.0798105  57.3158460 106.4736902  76.7220872  56.6105506 105.1827721
  79.6699036  64.9095203 117.7732262  79.3699759  65.8120242 117.6648069
  79.3250096  64.6427386 118.6253415  73.1211517  61.3609000 113.8068966
  72.1962014  61.2285214 114.0146658  73.3695931  62.1403219 114.3038909
  83.0696180  57.4277743 115.4529699  82.1613057  57.3593151 115.1588460
  83.0183776  57.9049688 116.2811525  76.8912924  58.9035881 107.0913098
  76.7712549  59.3492932 107.9298579  76.1965512  59.2521199 106.5326636
  70.4820329  61.0042273 114.6412755  70.6112710  61.2576752 115.5552167
  69.8017780  61.5969981 114.3217410  74.6519816  71.6739523 110.7403229
  74.5743845  72.6247348 110.8191710  74.0481459  71.3285396 111.3978156
  77.1437046  58.8467389 123.3964596  76.3670380  59.4061309 123.3867461
  77.7827609  59.3324172 123.9179466  84.9357826  55.6294181 117.2307573
  84.2932206  55.9226715 116.5847368  84.4312755  55.5147102 118.0360770
  82.5897990  59.3757355 107.9193432  83.5015846  59.6084741 107.7441130
  82.0807637  59.9594399 107.3568511  75.3983418  61.6552842 122.9582563
  76.1398102  62.1937886 122.6817387  74.6920403  62.2819131 123.1154115
  80.8738758  63.7981982 121.5554725  81.2822114  63.3564393 120.8109357
  80.1516019  63.2234610 121.8088918  77.2269828  58.7354589 118.9288282
  78.0731023  59.1594003 119.0722931  77.1668465  58.0788213 119.6226845
  81.1967572  64.3583173 115.3107014  80.5676435  64.5228887 114.6083082
  80.8093234  64.7724783 116.0817978  85.0756804  65.2937611 112.6651378
  84.3907842  65.6736512 112.1148411  85.1600653  65.9032938 113.3983325
  80.3769273  56.3958958 120.5869455  80.1330205  57.1501018 120.0503731
  80.6529203  56.7744305 121.4216703  82.3307736  62.9397570 119.2646721
  82.5424631  63.5829330 118.5881102  82.2837484  62.1059886 118.7968651
  79.9333965  55.5515391 116.1683293  79.0718444  55.8496644 116.4600031
  79.9596399  55.7685789 115.2364326  76.7495534  64.0957581 112.5757099
  77.2133880  64.3745284 111.7861721  76.4852332  63.1941026 112.3930190
  73.6419615  63.6429063 115.5136862  74.2120972  64.0716331 114.8754347
  74.2327727  63.3611647 116.2121048  75.6864420  60.2180733 109.3846664
  76.3888463  60.6701777 109.8520590  75.3545049  59.5764552 110.0126557
  74.1344782  58.8092490 123.7597873  73.5043442  59.4908771 123.9933270
  74.0280870  58.6975572 122.8151012  69.4289754  58.4764286 114.6863798
  68.6388808  58.7321815 114.2103908  69.9201001  59.2912624 114.7915838
  83.4453564  65.8169525 117.4369078  84.2671007  65.4149713 117.1551760
  83.4415966  65.7137759 118.3885194  71.3804499  58.8408865 111.6447274
  70.5835663  58.9527560 112.1630770  71.1530092  59.1795518 110.7788165
  77.2110167  65.3653569 119.5929789  77.2754600  65.8273976 120.4287961
  76.5021091  64.7350934 119.7212099  67.7127457  58.7294777 117.1178788
  67.9635495  59.6141787 117.3836364  68.2487005  58.5499378 116.3453880
  91.5359557  62.1608274 113.7854050  90.7823265  61.5915672 113.6298054
  91.6707098  62.1270938 114.7324685  76.9258185  67.0321676 109.4608769
  76.7903859  67.8773212 109.8893617  77.4667997  67.2340954 108.6974703
  73.4125524  53.1113256 126.1223124  73.0192470  52.5579455 126.7970769
  74.2291665  53.4223834 126.5129642  70.3787582  64.5497114 110.0336694
  70.8912103  65.3440364 110.1842259  71.0310295  63.8523405 109.9670296
  72.1882467  67.6662870 112.1159447  72.3649095  68.5880835 111.9280431
  72.9839300  67.3521290 112.5453827  76.3293485  54.5271135 123.7143381
  77.0703199  55.1278288 123.6347843  76.5611408  53.7848773 123.1561424
  71.4734823  59.7127502 121.9921611  71.3588338  58.8112760 122.2928710
  70.6179341  59.9591199 121.6406427  78.5526661  67.6545243 123.5909111
  78.1090515  66.8681621 123.2730016  79.2143875  67.8424393 122.9253002
  73.3113782  69.1841044 118.1169790  73.8621207  69.0558108 117.3446784
  72.4725258  69.4835933 117.7664683  80.6507899  67.9348043 121.6190513
  80.6326375  68.7556924 121.1270782  81.5727819  67.8102118 121.8440654
  77.1080953  65.4492172 122.4614021  77.6409290  64.6880460 122.2313329
  76.5795034  65.1565824 123.2038175  80.2750648  50.5552238 117.9907663
  79.9314918  51.4453880 117.9146773  80.6429611  50.3653896 117.1277248
  68.3436499  62.8785768 110.8096265  69.1811721  63.2882777 110.5929973
  68.5214767  61.9385211 110.7796459  80.2400931  60.5460849 106.4980098
  79.7247554  61.3165454 106.7368485  79.9678239  59.8725985 107.1213159
  77.8248042  55.3910550 111.5565336  76.9689638  55.0017400 111.3770975
  78.2374994  55.4702511 110.6965122  79.3547189  52.9256893 115.9556896
  78.8511984  52.8887028 115.1424701  79.6477796  53.8349636 116.0153553
  75.5990075  53.0095623 114.9623078  76.4643071  52.8138432 114.6028967
  75.6667583  52.7805975 115.8892434  85.2135205  63.2993204 108.4333271
  84.4364648  62.9604363 107.9888433  85.8926686  63.3045827 107.7588236
  80.0287234  58.4187941 108.3239879  79.7237370  58.7334090 109.1750022
  80.9817676  58.4969361 108.3667212  78.4733666  64.5778165 109.9732833
  77.9455028  63.8430924 109.6606070  77.9721169  65.3552841 109.7272801
  83.4526512  62.7727185 115.0899879  82.7950186  63.4626446 115.1780008
  84.2566911  63.1623617 115.4333866  73.2052394  55.2397831 112.3339444
  73.7796146  55.0173012 111.6012637  73.7923376  55.3086525 113.0868046
  82.2631971  61.1271558 113.1403821  82.7763853  61.7601550 113.6425531
  82.9133195  60.5272753 112.7747181  73.5321981  57.2702292 106.3535330
  72.6959293  57.6076978 106.6744604  73.3926750  57.1351272 105.4162467
  75.5075061  52.1139080 111.0614514  74.8539474  51.7988097 110.4371129
  75.4655535  51.4914820 111.7874337  76.6186266  62.3958375 102.9767806
  75.7113328  62.1647628 103.1758955  77.1157298  61.5995994 103.1641788
  79.5254345  71.1055882 105.8964492  78.8516044  71.4087579 106.5049450
  79.9120167  71.9084962 105.5469949  78.7412802  58.6021013 115.3862162
  77.8235363  58.8235960 115.2283850  79.1572945  58.6767324 114.5273869
  79.5247849  60.0012429 110.5164842  80.2719668  60.5133826 110.2071964
  79.7939439  59.6796482 111.3769235  77.7974500  62.4970970 107.4991796
  76.8885719  62.2130002 107.5964266  77.8269583  62.9170048 106.6395103
  83.0293767  66.1077559 111.2682964  82.5756094  65.2668469 111.3248154
  82.3987734  66.7438958 111.6057744  81.9726687  57.0369545 112.4983631
  81.2349443  56.5246931 112.8293874  82.2253460  56.5969927 111.6866908
  81.4726706  67.9454056 112.2032782  81.7649681  68.5059113 111.4845147
  81.9825327  68.2382617 112.9585941  82.0738314  49.8145797 113.0925400
  82.3797191  48.9543161 112.8051315  82.7990919  50.4063417 112.8924394
  68.3662670  60.2176484 111.4806998  68.1687070  59.6245844 110.7558065
  67.8109334  59.9128694 112.1982937  76.3459394  60.1099590 113.6001591
  76.4008003  59.1573427 113.5244068  75.5350596  60.2659029 114.0842890
  77.4950587  64.0379713 104.8379875  77.0570017  63.3215572 104.3785512
  78.2361028  64.2655828 104.2764966  74.2851754  58.7276650 111.3591970
  73.4719619  59.0270821 111.7657162  74.7810748  58.3332339 112.0766453
  76.4360331  68.7234407 113.2926235  76.3936510  68.9495253 112.3634767
  77.3523030  68.4897782 113.4412036  79.8825965  59.1918474 120.1906864
  80.2375353  59.4189948 121.0501330  80.5298097  59.5236851 119.5684119
  85.6123702  62.3136910 110.8956193  85.4741601  62.5038506 109.9677382
  85.2559921  63.0756293 111.3524244  73.7765828  56.2995006 116.9753205
  74.4165208  56.1583765 116.2776169  72.9443359  56.0129519 116.5991807
  85.6393082  64.3813437 115.9067465  86.0729588  64.2888726 116.7550519
  86.3524663  64.3570938 115.2687481  74.5526132  65.5997436 113.0888198
  75.3466731  65.1047756 112.8870773  73.8417825  65.0715299 112.7255903
  79.3720977  67.9815531 117.4400565  79.4257999  68.5506468 118.2078281
  78.5035758  68.1517416 117.0754602  70.8608896  59.7440518 109.1647950
  69.9306484  59.6824973 109.3817913  70.9566368  59.2216470 108.3684592
  70.7794445  56.2695330 111.7526192  71.0401262  57.1840664 111.6435353
  71.6011617  55.8019773 111.9022805  72.2519370  57.6833088 118.9225017
  72.9242424  57.4750450 118.2737665  71.4249157  57.4855174 118.4830249
  86.5008631  64.4237138 118.4400350  86.6944521  65.3282949 118.6859625
  86.4009250  63.9644557 119.2738935  78.1544942  54.3095029 120.9390677
  77.5072857  55.0084978 120.8455154  78.9245958  54.7431173 121.3066926
  81.5623740  64.5743881 124.0141231  81.4109246  64.3454432 123.0971314
  81.5528420  65.5314482 124.0272576  78.3309076  62.1475793 118.9987497
  79.2601136  62.2986953 118.8256464  77.9100106  62.2359814 118.1436144
  77.1297408  66.1726458 116.7686035  76.9908494  65.8045242 117.6411973
  76.3412004  66.6874097 116.5969993  77.7245560  71.2735554 108.1111571
  77.8997316  70.8023598 108.9257194  77.0378348  71.9001321 108.3392832
  78.6802623  65.5508061 114.1574873  78.3452456  65.5108831 115.0532522
  78.1806569  64.8852777 113.6845283  72.6546867  60.9575691 119.6827454
  72.5166665  60.2255929 120.2838993  73.5651791  60.8684591 119.4011641
  81.6161815  62.8964095 104.4311932  80.9990986  62.1710923 104.3344985
  81.1478304  63.6573455 104.0879006  75.2829168  60.6695650 119.1711133
  75.9928787  60.0288842 119.1297752  75.2398476  60.9208545 120.0937314
  83.2715947  67.6063003 122.0917713  83.2128493  66.9222223 121.4248296
  83.6735465  68.3481993 121.6398339  73.9958102  57.6560868 120.9906773
  73.4595459  57.2051606 121.6428369  73.4074810  57.7906777 120.2477237
  72.2906646  74.4224917 114.8851431  72.5303244  75.0543441 115.5630450
  71.4475842  74.0712957 115.1716791  73.4060361  57.1149519 103.5533237
  72.5289827  56.9938320 103.1895483  73.8818114  56.3235598 103.3012125
  83.2733354  65.5702587 120.3231692  82.3860133  65.2328509 120.4458091
  83.8431905  64.8385618 120.5600458  64.9262501  61.9026679 113.6474744
  65.6133541  61.5888409 113.0595759  64.7710630  62.8068044 113.3741995
  69.7297223  56.7916876 118.0759767  69.6455412  56.1842545 117.3410177
  68.9079930  57.2825894 118.0769264  76.8034507  70.2304040 117.2892935
  76.7304679  71.0359011 117.8012240  76.3611900  70.4296005 116.4640957
  76.5924287  69.4675810 110.7995757  75.8091809  70.0097490 110.8933982
  77.2917032  69.9849789 111.1989998  79.9020937  55.2770439 113.4429962
  80.3989637  54.5240401 113.1231033  79.1307919  55.3134756 112.8773172
  87.7550695  60.9810805 115.0848254  87.7440571  61.8635520 114.7142187
  86.8868074  60.6282355 114.8902791  79.2633191  70.1290874 119.4451094
  79.9761163  70.7638338 119.3726996  78.7723220  70.2254740 118.6291096
  80.9850718  64.0342126 111.0168386  80.0506997  64.1543589 110.8473090
  81.1627386  63.1314593 110.7528396  76.4855906  57.4187822 113.1701647
  76.1153693  56.8658862 113.8582553  76.9814998  56.8145956 112.6176647
  84.3723269  59.8759446 111.5518420  84.8383721  60.7087437 111.4778723
  84.8230770  59.4104427 112.2563678  74.3145104  67.8785317 120.2656665
  75.0154564  68.5121800 120.4186059  73.8440219  68.2200049 119.5052304
  82.4399500  66.2203267 108.5504572  82.7159344  66.1059861 109.4598446
  81.5703999  65.8220752 108.5116745  82.3439932  52.2440033 115.5909321
  81.4303012  52.4744259 115.7591528  82.7733033  52.3278477 116.4423354
  82.1146390  60.4329925 118.0909215  81.4617841  60.6805832 117.4361668
  82.4926770  59.6194063 117.7571693  79.0753564  70.4689618 112.1937386
  79.2575959  69.6511274 112.6565138  79.8986550  70.6857310 111.7562276
  79.4095730  69.3957803 109.4552434  79.9383496  68.8850257 108.8422596
  79.6723949  69.0800333 110.3197967  78.1633963  61.1749736 124.5775252
  77.4874600  61.0743865 125.2477628  78.9861597  61.0188949 125.0411250
  69.9112822  67.4121672 117.1987768  70.4966259  66.6665360 117.3315672
  69.7137661  67.7225629 118.0824432  72.7651478  70.4472920 112.2150210
  72.0961853  70.9319047 111.7314250  72.6264347  70.6942140 113.1293589
  64.5030477  59.9827272 115.9192211  64.5414577  59.4490863 116.7129329
  63.9970770  59.4562478 115.3003188  76.9056746  72.4816663 118.8132868
  77.4575054  72.6448285 119.5781954  77.2462940  73.0721101 118.1412893
  71.8821240  54.8291813 119.4154753  71.9462566  55.6906644 119.0032151
  71.8188360  54.2165815 118.6827112  71.3573512  56.9014945 123.0627787
  71.9845551  56.5192023 123.6765312  70.5001431  56.6829147 123.4283480
  68.1339055  58.7091375 108.9946142  68.4292496  57.8002053 108.9413196
  67.2327091  58.6879114 108.6727145  80.0425134  70.4298639 115.7996551
  79.9176273  69.6288378 115.2907496  80.7004225  70.9244832 115.3110521
  71.6633302  56.7847371 114.9773691  70.9419888  57.3983339 114.8381164
  72.4526558  57.3205136 114.8990337  82.1060042  68.2307659 117.4276101
  81.1590377  68.1113010 117.3554427  82.4542815  67.3430157 117.5102362
  74.4659615  54.1201798 121.2514343  74.9894017  54.3664094 122.0140652
  74.2471949  54.9521832 120.8317480  69.8626896  56.3905472 109.1185467
  69.5339603  55.5102851 108.9360573  70.2166267  56.3353141 110.0061857
  79.1106475  68.0260375 113.6280453  78.9631438  67.0977082 113.8088023
  79.9359969  68.0480466 113.1437528  72.9768720  56.6778442 109.4860945
  73.3164792  57.2064363 108.7639553  73.4240840  57.0158848 110.2619512
  82.7140597  68.8488934 114.7145326  83.6387145  68.6431795 114.5769777
  82.5455900  68.6005335 115.6234667  75.6712160  55.0615493 118.9364013
  75.3308981  54.2623306 119.3384693  74.9651167  55.3617204 118.3640846
  76.3228632  52.1464805 117.3891336  77.1454702  51.6725283 117.2670226
  76.5666696  52.9255289 117.8890022  74.9636867  55.1753064 107.6854238
  75.6845229  55.5534316 107.1817955  74.3402171  55.8941940 107.7889216
  79.1067990  55.8798213 108.6212570  79.3231604  56.7622850 108.3201398
  78.6262057  55.4884426 107.8918212  73.8467211  58.8383926 115.1983315
  73.7011792  59.1524229 116.0907596  73.3692415  59.4568826 114.6454213
  75.7063594  55.8286474 115.2464204  75.6925163  54.9327567 114.9096502
  76.4236022  55.8357137 115.8802490  77.5589725  56.2623814 117.2917332
  77.3007502  57.1840885 117.2901662  77.0274765  55.8654248 117.9817796
  82.5035913  69.3674601 110.0707417  82.6772791  68.8021024 109.3181270
  82.9964805  70.1675496 109.8886907  68.3212873  61.3789270 118.1370976
  67.7766341  62.1549078 118.2691250  69.1992223  61.7260075 117.9790097
  75.1100490  54.7100854 110.5151774  75.2316401  53.7817500 110.7142662
  74.8202532  54.7239540 109.6030090  77.9791680  52.3955764 113.6518494
  78.0013377  52.4595098 112.6970474  78.3959739  51.5560273 113.8459000
  88.3575304  62.1311024 111.6897717  88.8006451  61.3818349 111.2916840
  87.4801815  62.1221160 111.3071449  83.4911086  68.6841365 107.1704315
  84.1861990  69.3048058 107.3891630  83.8334236  67.8336717 107.4456693
  69.1078895  60.5059166 121.0301133  68.3660631  60.6541802 121.6165763
  68.7871639  60.7667432 120.1667882  85.3902509  66.1341071 108.6991646
  85.9153833  66.4728344 107.9740966  85.3024861  65.1988086 108.5154781
  77.0522558  70.0475145 120.8281523  77.3609684  69.8024291 121.7004222
  77.8498040  70.2521783 120.3400393  77.0743170  72.2013054 113.0586899
  76.6348160  71.7089433 113.7519756  77.8251287  71.6586022 112.8178975
  69.5535509  68.3924595 113.0611527  70.3793529  68.0928367 112.6810171
  69.2029561  67.6232218 113.5101316  74.5217042  67.7451063 115.1309201
  73.8997051  67.0821768 114.8311429  75.1921909  67.7712195 114.4482849
  67.7544114  66.3110922 114.0200461  66.9176022  65.8833096 113.8384462
  67.7267759  66.5043365 114.9571252  74.5941569  56.2232851 124.7241707
  74.6429725  57.0994974 124.3419477  75.1364084  55.6810244 124.1513350
  85.1994290  63.6166441 121.3175573  85.2492295  63.4516448 122.2591095
  85.0908213  62.7493700 120.9273453  74.0830549  66.2954987 108.6067662
  74.2318669  66.9790451 107.9534334  74.8896992  66.2760077 109.1217117
  82.4898052  59.5997369 122.6334879  83.3907915  59.4603834 122.3418877
  82.5646027  59.7651824 123.5733057  76.8240858  56.9764224 121.4788066
  75.9544167  57.2697790 121.2070654  77.0600338  57.5604669 122.1995329
  86.7012487  66.0363383 121.5617594  86.4097295  66.3993363 122.3981055
  86.0884618  65.3230391 121.3830926  87.9008169  63.6016262 114.0820164
  88.7355061  64.0406066 114.2457725  88.0367298  63.1254916 113.2628410
  84.9499675  61.1595997 120.0297652  85.4253797  61.3523643 119.2216504
  84.0265240  61.2155183 119.7841036  71.8383182  62.3220164 109.6128730
  71.5929224  61.4182494 109.8108941  72.0079096  62.3237315 108.6708208
  79.5279892  53.1943841 118.9953486  80.0461835  53.9304868 118.6699975
  79.1735024  53.5007834 119.8300245  71.1078829  58.0548522 107.1114892
  70.4148074  58.1292877 106.4554928  70.8630581  57.2908866 107.6336409
  79.7792486  49.6144123 114.5154383  80.0594240  48.9467312 115.1414809
  80.5643093  49.8073219 114.0029046  77.5825954  68.7903117 106.0779409
  77.0099921  69.4093304 105.6249881  78.1558748  69.3402479 106.6119331
  83.6501344  58.0361757 118.2625958  84.6018767  58.1359855 118.2838182
  83.4804795  57.2440026 118.7724042  81.6715724  55.1217340 118.4485359
  81.0765656  55.4022353 117.7531847  81.3865420  55.6111241 119.2202100
  80.8023214  69.0740267 107.2087991  81.7353887  69.0085829 107.4120867
  80.7146427  69.9096534 106.7502524  83.4311231  68.3906138 104.1691939
  83.3524862  68.0566001 105.0627697  84.2520897  68.8827906 104.1683411
  86.1289422  61.2567877 117.3768257  86.0965742  60.3183878 117.5627941
  86.7390046  61.3351914 116.6434082  77.9672753  60.1263930 103.4195461
  78.9131857  59.9970138 103.4883879  77.5886998  59.3878592 103.8964890
  86.2783910  58.0478920 117.4226541  85.7622959  57.2637377 117.2356469
  87.1623859  57.7197637 117.5873060  83.9394637  51.7919936 113.3822353
  83.7419458  51.4835024 114.2665685  84.5494343  52.5181575 113.5120283
  91.9465972  62.3183884 116.5174294  92.6769360  62.0569172 117.0781998
  91.3372917  61.5812606 116.5576362  90.0281269  60.4591746 117.1148745
  89.3014432  60.3247711 116.5065237  89.6128556  60.7668575 117.9205463
  77.8511445  64.1781676 124.8796118  78.7714455  64.3560275 125.0736165
  77.8161028  63.2337721 124.7275818  76.1515670  58.0513906 103.3550347
  75.2447125  57.7547019 103.4313060  76.4291651  57.7543724 102.4884633
  67.0693610  59.3720270 113.8049393  66.7496395  58.5185578 113.5123767
  66.5227038  59.5868848 114.5607360  70.8473518  62.0882711 117.5218900
  71.0659528  63.0199819 117.5406933  71.2599292  61.7290685 118.3073703
  77.7677736  52.5950796 109.5094588  76.9578464  52.2497881 109.8849834
  78.4562153  52.2858340 110.0982200  79.6968284  51.6728843 111.1318885
  80.2499323  52.0924296 111.7908908  79.9338370  50.7464591 111.1741841
  75.7201383  57.6615916 126.9121649  75.6198110  58.6110273 126.8433740
  75.5022925  57.3334155 126.0397719  74.9214455  54.9100842 103.4962326
  75.7833619  55.2355740 103.7558143  75.1064799  54.1232337 102.9835392
  66.9381870  62.9923181 115.7742515  66.2445342  62.5777134 115.2612469
  67.6854861  63.0343718 115.1775934  83.0747091  53.7829368 110.6397549
  82.4945760  54.4414172 110.2575601  82.8083024  52.9606713 110.2284966
  81.5250657  53.1834426 112.8418869  82.0250436  53.2950960 112.0333188
  82.1686265  52.8795479 113.4819678  75.5832653  61.0913055 125.7286710
  75.0999735  61.8913415 125.9350599  75.6693592  61.1021000 124.7754154
  68.8518613  62.9241435 113.6508530  68.8289301  63.0229122 112.6990413
  69.1619249  63.7706586 113.9725696  71.5105991  64.9817590 117.7655144
  72.4649244  64.9501532 117.6985076  71.3118514  64.5208214 118.5805370
  72.1005373  63.5518706 120.3325942  72.9198262  64.0462785 120.3560779
  72.3742181  62.6350674 120.3043509  81.8571969  55.9429458 109.6953897
  80.9697824  56.2279109 109.4774092  82.2725958  55.7823222 108.8481174
  85.2086505  55.9675979 113.4108236  85.9846895  56.4572432 113.6832853
  84.4834639  56.3934034 113.8680106  87.6459064  56.6803599 114.4682177
  88.2403555  56.4399335 113.7575485  87.7185647  55.9610729 115.0955713
  69.8656219  70.5237209 114.7825342  69.7310687  69.7637610 114.2163340
  69.4488282  71.2478109 114.3154131  81.0015182  65.7074133 103.7901917
  81.7051033  65.9124136 104.4059573  80.2777831  66.2750895 104.0551001
  81.8312993  61.4583994 109.9104187  81.7748194  61.9152546 109.0711820
  82.3841335  60.6974679 109.7327030  85.6417799  57.2473726 110.7354307
  85.3854733  56.8470362 111.5662514  85.0170667  57.9617520 110.6104446
  89.9530137  59.9869799 113.2425598  89.3929695  60.0562989 114.0157160
  89.3473640  59.8110784 112.5225094  73.0225345  71.4206527 114.9943784
  72.9057730  72.3651959 114.8922475  72.2017792  71.1180088 115.3829584
  82.9101880  66.1456662 105.8400377  83.7447484  65.7137861 105.6577852
  82.7486223  65.9738676 106.7677272  82.5647772  62.6488776 107.2056716
  82.5096576  62.4833047 106.2645161  81.9393827  63.3564808 107.3618906
  67.3540287  57.8856840 121.0318139  67.9999151  57.3755794 121.5205364
  67.1457438  58.6225522 121.6061564  75.8743898  52.1496885 106.7842035
  75.8622567  53.0938724 106.9410306  76.7667319  51.9667030 106.4901496
  74.0479859  72.0734788 118.2099713  74.9507106  72.1058399 118.5266208
  73.8217230  71.1435239 118.2246049  75.8033461  70.8265775 114.8709792
  74.8529093  70.8267637 114.7574164  76.1065948  70.0798510 114.3545826
  79.6896017  48.7439661 111.0387972  78.9228413  48.1898148 111.1844654
  80.1006722  48.8161530 111.9002123  71.6937778  55.0324457 125.1293153
  72.5569240  54.6761262 125.3396477  71.1203189  54.6938352 125.8168557
  88.3475861  76.6153741 115.8717079  88.0094373  76.4994806 114.9837613
  89.2165629  76.2144907 115.8518085  84.2062677  78.4689218 111.8613970
  83.6427542  78.3779155 111.0930257  84.0915072  77.6489122 112.3416462
  81.7527109  79.9640409 114.6998190  82.5448401  79.6231234 114.2844489
  81.9923759  80.0735384 115.6200343  89.7862236  82.1360186 107.1728434
  89.1350215  82.7214266 106.7862448  90.5806598  82.6666380 107.2323472
  83.7117863  79.2249323 107.5715569  84.4848739  78.6778310 107.4328445
  84.0643262  80.0893572 107.7830030  86.0484141  75.3841989 105.2034019
  86.3009661  74.8623510 104.4417482  85.1108700  75.2208134 105.3060702
  91.0927423  74.3877767 113.0108762  91.8790513  73.9697190 112.6599179
  91.3566128  75.2923859 113.1790410  91.2637501  79.8250617 107.7097419
  90.6283334  79.8985244 108.4218323  90.9334907  80.4144216 107.0316498
  96.4935851  74.3253000 113.9141740  97.2261023  73.7552217 114.1479570
  95.7375206  73.9374601 114.3548246  85.7680429  77.2870095 107.4058394
  85.6516687  76.6114998 108.0739478  85.8782689  76.8002469 106.5890547
  88.1111970  76.7480242 111.1105083  87.7470178  76.2210863 111.8218004
  88.9679086  76.3578711 110.9371568  94.0161271  68.0374574 118.3736349
  93.6844596  68.9069985 118.1497564  93.4206884  67.7210858 119.0530379
  87.7517457  71.7770142 106.1066431  87.9191860  72.6450378 106.4736902
  87.5614626  71.9397423 105.1827721  83.9605272  76.6900917 113.8068966
  83.0355768  76.5577131 114.0146658  84.2089685  77.4695137 114.3038909
  87.7306678  74.2327799 107.0913098  87.6106303  74.6784850 107.9298579
  87.0359267  74.5813117 106.5326636  81.3214083  76.3334191 114.6412755
  81.4506464  76.5868670 115.5552167  80.6411534  76.9261899 114.3217410
  85.4913570  87.0031441 110.7403229  85.4137600  87.9539266 110.8191710
  84.8875214  86.6577313 111.3978156  93.4291744  74.7049272 107.9193432
  94.3409600  74.9376659 107.7441130  92.9201391  75.2886316 107.3568511
  90.7727719  70.8807308 116.1683293  89.9112198  71.1788562 116.4600031
  90.7990154  71.0977707 115.2364326  87.5889289  79.4249499 112.5757099
  88.0527634  79.7037202 111.7861721  87.3246087  78.5232943 112.3930190
  84.4813370  78.9720980 115.5136862  85.0514727  79.4008249 114.8754347
  85.0721481  78.6903565 116.2121048  86.5258175  75.5472651 109.3846664
  87.2282218  75.9993695 109.8520590  86.1938803  74.9056470 110.0126557
  80.2683509  73.8056204 114.6863798  79.4782563  74.0613732 114.2103908
  80.7594756  74.6204542 114.7915838  82.2198254  74.1700783 111.6447274
  81.4229417  74.2819477 112.1630770  81.9923846  74.5087435 110.7788165
  78.5521212  74.0586694 117.1178788  78.8029250  74.9433704 117.3836364
  79.0880760  73.8791296 116.3453880  87.7651939  82.3613594 109.4608769
  87.6297614  83.2065130 109.8893617  88.3061752  82.5632871 108.6974703
  81.2181337  79.8789032 110.0336694  81.7305857  80.6732282 110.1842259
  81.8704049  79.1815322 109.9670296  83.0276221  82.9954788 112.1159447
  83.2042850  83.9172753 111.9280431  83.8233055  82.6813207 112.5453827
  91.1144403  65.8844156 117.9907663  90.7708672  66.7745797 117.9146773
  91.4823365  65.6945813 117.1277248  79.1830253  78.2077686 110.8096265
  80.0205475  78.6174694 110.5929973  79.3608521  77.2677128 110.7796459
  91.0794685  75.8752767 106.4980098  90.5641309  76.6457371 106.7368485
  90.8071994  75.2017903 107.1213159  88.6641797  70.7202468 111.5565336
  87.8083393  70.3309318 111.3770975  89.0768748  70.7994428 110.6965122
  90.1940943  68.2548811 115.9556896  89.6905739  68.2178946 115.1424701
  90.4871550  69.1641554 116.0153553  86.4383829  68.3387541 114.9623078
  87.3036826  68.1430349 114.6028967  86.5061338  68.1097892 115.8892434
  96.0528960  78.6285121 108.4333271  95.2758402  78.2896281 107.9888433
  96.7320441  78.6337745 107.7588236  90.8680989  73.7479859 108.3239879
  90.5631124  74.0626008 109.1750022  91.8211431  73.8261279 108.3667212
  89.3127421  79.9070082 109.9732833  88.7848782  79.1722842 109.6606070
  88.8114923  80.6844759 109.7272801  84.0446148  70.5689748 112.3339444
  84.6189900  70.3464930 111.6012637  84.6317131  70.6378443 113.0868046
  93.1025725  76.4563475 113.1403821  93.6157607  77.0893467 113.6425531
  93.7526949  75.8564671 112.7747181  84.3715735  72.5994209 106.3535330
  83.5353047  72.9368896 106.6744604  84.2320505  72.4643189 105.4162467
  86.3468816  67.4430997 111.0614514  85.6933228  67.1280015 110.4371129
  86.3049290  66.8206738 111.7874337  87.4580021  77.7250292 102.9767806
  86.5507082  77.4939546 103.1758955  87.9551053  76.9287912 103.1641788
  90.3648100  86.4347800 105.8964492  89.6909798  86.7379496 106.5049450
  90.7513922  87.2376880 105.5469949  89.5806556  73.9312931 115.3862162
  88.6629118  74.1527878 115.2283850  89.9966700  74.0059241 114.5273869
  90.3641604  75.3304347 110.5164842  91.1113423  75.8425744 110.2071964
  90.6333193  75.0088399 111.3769235  88.6368254  77.8262887 107.4991796
  87.7279473  77.5421920 107.5964266  88.6663338  78.2461966 106.6395103
  92.8120441  72.3661463 112.4983631  92.0743198  71.8538849 112.8293874
  93.0647215  71.9261844 111.6866908  92.9132068  65.1437715 113.0925400
  93.2190945  64.2835078 112.8051315  93.6384673  65.7355335 112.8924394
  79.2056425  75.5468401 111.4806998  79.0080824  74.9537762 110.7558065
  78.6503088  75.2420612 112.1982937  87.1853148  75.4391508 113.6001591
  87.2401758  74.4865344 113.5244068  86.3744350  75.5950947 114.0842890
  88.3344342  79.3671631 104.8379875  87.8963772  78.6507490 104.3785512
  89.0754783  79.5947746 104.2764966  85.1245508  74.0568568 111.3591970
  84.3113374  74.3562738 111.7657162  85.6204502  73.6624256 112.0766453
  96.4517457  77.6428828 110.8956193  96.3135355  77.8330424 109.9677382
  96.0953676  78.4048211 111.3524244  84.6159583  71.6286923 116.9753205
  85.2558962  71.4875682 116.2776169  83.7837113  71.3421437 116.5991807
  85.3919887  80.9289354 113.0888198  86.1860485  80.4339674 112.8870773
  84.6811579  80.4007217 112.7255903  81.7002650  75.0732435 109.1647950
  80.7700238  75.0116891 109.3817913  81.7960122  74.5508388 108.3684592
  81.6188199  71.5987248 111.7526192  81.8795017  72.5132581 111.6435353
  82.4405372  71.1311691 111.9022805  83.0913125  73.0125005 118.9225017
  83.7636178  72.8042367 118.2737665  82.2642911  72.8147091 118.4830249
  88.5639315  86.6027472 108.1111571  88.7391070  86.1315515 108.9257194
  87.8772103  87.2293238 108.3392832  92.4555570  78.2256013 104.4311932
  91.8384740  77.5002841 104.3344985  91.9872058  78.9865373 104.0879006
  84.2454115  72.4441437 103.5533237  83.3683582  72.3230238 103.1895483
  84.7211869  71.6527515 103.3012125  75.7656256  77.2318597 113.6474744
  76.4527295  76.9180327 113.0595759  75.6104384  78.1359961 113.3741995
  80.5690978  72.1208793 118.0759767  80.4849166  71.5134463 117.3410177
  79.7473684  72.6117812 118.0769264  87.4318041  84.7967727 110.7995757
  86.6485563  85.3389407 110.8933982  88.1310787  85.3141707 111.1989998
  90.7414692  70.6062357 113.4429962  91.2383391  69.8532319 113.1231033
  89.9701673  70.6426673 112.8773172  91.8244472  79.3634044 111.0168386
  90.8900751  79.4835506 110.8473090  92.0021141  78.4606511 110.7528396
  87.3249660  72.7479740 113.1701647  86.9547448  72.1950780 113.8582553
  87.8208753  72.1437873 112.6176647  95.2117024  75.2051363 111.5518420
  95.6777476  76.0379355 111.4778723  95.6624524  74.7396345 112.2563678
  93.2793255  81.5495185 108.5504572  93.5553099  81.4351779 109.4598446
  92.4097753  81.1512669 108.5116745  93.1833686  67.5731950 115.5909321
  92.2696766  67.8036177 115.7591528  93.6126788  67.6570394 116.4423354
  90.2489484  84.7249721 109.4552434  90.7777251  84.2142175 108.8422596
  90.5117704  84.4092251 110.3197967  75.3424232  75.3119190 115.9192211
  75.3808331  74.7782781 116.7129329  74.8364525  74.7854396 115.3003188
  82.7214994  70.1583731 119.4154753  82.7856320  71.0198561 119.0032151
  82.6582114  69.5457732 118.6827112  78.9732809  74.0383292 108.9946142
  79.2686250  73.1293971 108.9413196  78.0720845  74.0171032 108.6727145
  82.5027056  72.1139289 114.9773691  81.7813642  72.7275256 114.8381164
  83.2920312  72.6497054 114.8990337  80.7020651  71.7197390 109.1185467
  80.3733357  70.8394769 108.9360573  81.0560022  71.6645059 110.0061857
  83.8162474  72.0070360 109.4860945  84.1558547  72.5356281 108.7639553
  84.2634595  72.3450766 110.2619512  86.5105915  70.3907410 118.9364013
  86.1702735  69.5915223 119.3384693  85.8044921  70.6909121 118.3640846
  87.1622387  67.4756723 117.3891336  87.9848456  67.0017201 117.2670226
  87.4060450  68.2547207 117.8890022  85.8030621  70.5044981 107.6854238
  86.5238984  70.8826234 107.1817955  85.1795925  71.2233858 107.7889216
  89.9461744  71.2090130 108.6212570  90.1625358  72.0914768 108.3201398
  89.4655811  70.8176344 107.8918212  84.6860965  74.1675843 115.1983315
  84.5405546  74.4816146 116.0907596  84.2086169  74.7860744 114.6454213
  86.5457348  71.1578391 115.2464204  86.5318917  70.2619485 114.9096502
  87.2629776  71.1649055 115.8802490  88.3983479  71.5915732 117.2917332
  88.1401257  72.5132802 117.2901662  87.8668519  71.1946166 117.9817796
  79.1606628  76.7081188 118.1370976  78.6160096  77.4840996 118.2691250
  80.0385977  77.0551992 117.9790097  85.9494244  70.0392772 110.5151774
  86.0710155  69.1109418 110.7142662  85.6596287  70.0531458 109.6030090
  88.8185435  67.7247682 113.6518494  88.8407131  67.7887015 112.6970474
  89.2353494  66.8852191 113.8459000  94.3304840  84.0133283 107.1704315
  95.0255745  84.6339976 107.3891630  94.6727990  83.1628634 107.4456693
  96.2296263  81.4632989 108.6991646  96.7547587  81.8020261 107.9740966
  96.1418616  80.5280004 108.5154781  80.3929263  83.7216513 113.0611527
  81.2187283  83.4220285 112.6810171  80.0423315  82.9524135 113.5101316
  78.5937868  81.6402839 114.0200461  77.7569776  81.2125014 113.8384462
  78.5661514  81.8335283 114.9571252  84.9224303  81.6246904 108.6067662
  85.0712424  82.3082369 107.9534334  85.7290747  81.6051994 109.1217117
  82.6776936  77.6512082 109.6128730  82.4322978  76.7474412 109.8108941
  82.8472851  77.6529232 108.6708208  90.3673646  68.5235758 118.9953486
  90.8855590  69.2596785 118.6699975  90.0128779  68.8299752 119.8300245
  81.9472584  73.3840440 107.1114892  81.2541829  73.4584795 106.4554928
  81.7024336  72.6200783 107.6336409  90.6186240  64.9436041 114.5154383
  90.8987994  64.2759230 115.1414809  91.4036847  65.1365137 114.0029046
  88.4219709  84.1195035 106.0779409  87.8493676  84.7385222 105.6249881
  88.9952502  84.6694397 106.6119331  91.6416969  84.4032185 107.2087991
  92.5747642  84.3377747 107.4120867  91.5540181  85.2388452 106.7502524
  94.2704985  83.7198055 104.1691939  94.1918617  83.3857919 105.0627697
  95.0914652  84.2119823 104.1683411  88.8066507  75.4555848 103.4195461
  89.7525612  75.3262056 103.4883879  88.4280752  74.7170509 103.8964890
  94.7788392  67.1211854 113.3822353  94.5813213  66.8126942 114.2665685
  95.3888097  67.8473493 113.5120283  86.9909424  73.3805824 103.3550347
  86.0840880  73.0838937 103.4313060  87.2685405  73.0835642 102.4884633
  77.9087365  74.7012187 113.8049393  77.5890149  73.8477496 113.5123767
  77.3620793  74.9160766 114.5607360  81.6867272  77.4174628 117.5218900
  81.9053282  78.3491736 117.5406933  82.0993046  77.0582603 118.3073703
  88.6071490  67.9242714 109.5094588  87.7972218  67.5789799 109.8849834
  89.2955907  67.6150257 110.0982200  90.5362038  67.0020760 111.1318885
  91.0893077  67.4216214 111.7908908  90.7732125  66.0756509 111.1741841
  85.7608209  70.2392759 103.4962326  86.6227373  70.5647657 103.7558143
  85.9458553  69.4524255 102.9835392  77.7775625  78.3215099 115.7742515
  77.0839096  77.9069052 115.2612469  78.5248616  78.3635635 115.1775934
  93.9140845  69.1121286 110.6397549  93.3339515  69.7706090 110.2575601
  93.6476778  68.2898630 110.2284966  92.3644412  68.5126343 112.8418869
  92.8644190  68.6242878 112.0333188  93.0080020  68.2087396 113.4819678
  79.6912367  78.2533353 113.6508530  79.6683055  78.3521040 112.6990413
  80.0013004  79.0998503 113.9725696  92.6965724  71.2721376 109.6953897
  91.8091579  71.5571027 109.4774092  93.1119713  71.1115139 108.8481174
  96.0480260  71.2967897 113.4108236  96.8240650  71.7864349 113.6832853
  95.3228394  71.7225951 113.8680106  98.4852818  72.0095516 114.4682177
  99.0797309  71.7691252 113.7575485  98.5579402  71.2902647 115.0955713
  91.8408937  81.0366051 103.7901917  92.5444787  81.2416053 104.4059573
  91.1171586  81.6042813 104.0551001  92.6706747  76.7875912 109.9104187
  92.6141949  77.2444463 109.0711820  93.2235090  76.0266597 109.7327030
  96.4811553  72.5765644 110.7354307  96.2248487  72.1762279 111.5662514
  95.8564421  73.2909438 110.6104446  93.7495634  81.4748580 105.8400377
  94.5841238  81.0429778 105.6577852  93.5879977  81.3030594 106.7677272
  93.4041527  77.9780693 107.2056716  93.3490330  77.8124965 106.2645161
  92.7787582  78.6856726 107.3618906  78.1934042  73.2148758 121.0318139
  78.8392905  72.7047712 121.5205364  77.9851193  73.9517439 121.6061564
  86.7137652  67.4788802 106.7842035  86.7016322  68.4230642 106.9410306
  87.6061074  67.2958948 106.4901496  90.5289771  64.0731579 111.0387972
  89.7622167  63.5190066 111.1844654  90.9400476  64.1453448 111.9002123
  95.2109490  87.9286127 106.3535330  94.3746802  88.2660814 106.6744604
  95.0714259  87.7935107 105.4162467  95.0847870  87.7733355 103.5533237
  94.2077336  87.6522155 103.1895483  95.5605623  86.9819433 103.3012125
  92.7866338  88.7132357 107.1114892  92.0935583  88.7876712 106.4554928
  92.5418090  87.9492701 107.6336409  97.8303179  88.7097742 103.3550347
  96.9234634  88.4130854 103.4313060  98.1079160  88.4127560 102.4884633
  96.6001964  85.5684677 103.4962326  97.4621128  85.8939575 103.7558143
  96.7852308  84.7816173 102.9835392  97.5531407  82.8080720 106.7842035
  97.5410076  83.7522560 106.9410306  98.4454828  82.6250865 106.4901496
  47.0073083   2.1242252  92.6209799  46.3334782   2.4273948  93.2294757
  47.3938905   2.9271332  92.2715256  49.0980553  -6.0849535  91.1557239
  48.4809723  -6.8102707  91.0590292  48.6297041  -5.3240175  90.8124313
  50.9729824  -0.2972265  93.8949622  51.6680728   0.3234428  94.1136937
  51.3152974  -1.1476914  94.1702000  45.0644692  -0.1910513  92.8024716
  44.4918659   0.4279674  92.3495187  45.6377486   0.3588848  93.3364638
  48.2841952   0.0926637  93.9333298  49.2172625   0.0272199  94.1366173
  48.1965165   0.9282904  93.4747831  50.9129968  -0.5907493  90.8937245
  50.8343600  -0.9247629  91.7873003  51.7339635  -0.0985725  90.8928718
  48.4833920  -3.2739497  90.5147224  49.1869770  -3.0689495  91.1304879
  47.7596569  -2.7062736  90.7796307  50.3920618  -2.8356968  92.5645684
  51.2266222  -3.2675770  92.3823159  50.2304961  -3.0074955  93.4922578
  59.0204893   7.6812683 102.6600861  59.6583303   7.5619430 101.9564201
  58.9025736   8.6293527 102.7188813  55.8294599   7.6340111 102.5962385
  55.4913111   7.5181176 101.7082920  56.6984367   7.2331276 102.5763391
  51.6881415   9.4875587  98.5859276  51.1246280   9.3965524  97.8175564
  51.5733810   8.6675492  99.0661769  57.2680973  13.1546555  93.8973741
  56.6168953  13.7400636  93.5107755  58.0625336  13.6852750  93.9568779
  51.1936601  10.2435692  94.2960875  51.9667477   9.6964679  94.1573751
  51.5461999  11.1079942  94.5075337  53.5302878   6.4028358  91.9279325
  53.7828399   5.8809880  91.1662788  52.5927438   6.2394504  92.0306009
  58.5746161   5.4064137  99.7354069  59.3609250   4.9883560  99.3844486
  58.8384866   6.3110229  99.9035717  58.7456239  10.8436987  94.4342725
  58.1102072  10.9171614  95.1463630  58.4153645  11.4330586  93.7561805
  63.9754588   5.3439370 100.6387047  64.7079760   4.7738587 100.8724877
  63.2193944   4.9560970 101.0793553  53.2499167   8.3056464  94.1303700
  53.1335425   7.6301368  94.7984785  53.3601427   7.8188838  93.3135853
  55.5930708   7.7666611  97.8350390  55.2288915   7.2397232  98.5463311
  56.4497824   7.3765080  97.6616875  55.2336195   2.7956511  92.8311738
  55.4010597   3.6636748  93.1982209  55.0433364   2.9583793  91.9073027
  57.9911528  11.2573490 104.4977568  57.6912251  12.1598529 104.3893376
  57.6462588  10.9905673 105.3498721  61.3908672   3.7756030 102.1775006
  60.4825549   3.7071439 101.8833767  61.3396268   4.2527975 103.0056831
  55.2125416   5.2514169  93.8158405  55.0925041   5.6971219  94.6543885
  54.5178004   5.5999486  93.2571943  52.9732308  18.0217810  97.4648536
  52.8956338  18.9725635  97.5437017  52.3693952  17.6763683  98.1223462
  60.9110482   5.7235642  94.6438739  61.8228338   5.9563029  94.4686436
  60.4020129   6.3072686  94.0813818  59.5180064  10.7061460 102.0352320
  58.8888927  10.8707174 101.3328388  59.1305727  11.1203070 102.8063284
  63.3969296  11.6415898  99.3896684  62.7120334  12.0214799  98.8393717
  63.4813146  12.2511225 100.1228632  55.0708026  10.4435868  99.3002405
  55.5346372  10.7223571  98.5107028  54.8064824   9.5419313  99.1175496
  54.0076912   6.5659021  96.1091971  54.7100956   7.0180064  96.5765897
  53.6757541   5.9242840  96.7371864  61.7666056  12.1647813 104.1614385
  62.5883500  11.7628000 103.8797067  61.7628459  12.0616047 105.1130501
  69.8572049   8.5086561 100.5099356  69.1035757   7.9393959 100.3543361
  69.9919590   8.4749226 101.4569991  55.2470677  13.3799963  96.1854076
  55.1116352  14.2251499  96.6138924  55.7880489  13.5819241  95.4220010
  48.7000074  10.8975401  96.7582001  49.2124595  11.6918652  96.9087566
  49.3522787  10.2001692  96.6915602  50.5094959  14.0141158  98.8404754
  50.6861587  14.9359122  98.6525738  51.3051793  13.6999577  99.2699134
  51.6326275  15.5319331 104.8415096  52.1833700  15.4036395 104.0692090
  50.7937750  15.8314220 104.4909989  46.6648991   9.2264056  97.5341571
  47.5024213   9.6361064  97.3175279  46.8427259   8.2863498  97.5041765
  58.5613423   6.8939136  93.2225404  58.0460047   7.6643741  93.4613792
  58.2890732   6.2204272  93.8458466  56.1460534   1.7388837  98.2810643
  55.2902131   1.3495688  98.1016282  56.5587486   1.8180798  97.4210428
  63.5347697   9.6471491  95.1578578  62.7577140   9.3082650  94.7133740
  64.2139178   9.6524114  94.4833543  58.3499726   4.7666228  95.0485186
  58.0449862   5.0812378  95.8995329  59.3030169   4.8447648  95.0912519
  56.7946158  10.9256452  96.6978140  56.2667520  10.1909211  96.3851377
  56.2933661  11.7031128  96.4518108  61.7739004   9.1205472 101.8145186
  61.1162679   9.8104734 101.9025315  62.5779404   9.5101904 102.1579172
  60.5844463   7.4749845  99.8649128  61.0976345   8.1079837 100.3670837
  61.2345687   6.8751040  99.4992488  51.8534473   3.6180579  93.0780636
  51.0171785   3.9555266  93.3989911  51.7139243   3.4829559  92.1407773
  54.9398758   8.7436662  89.7013113  54.0325820   8.5125915  89.9004262
  55.4369790   7.9474281  89.8887094  57.8466837  17.4534169  92.6209799
  57.1728536  17.7565866  93.2294757  58.2332659  18.2563250  92.2715256
  57.8460342   6.3490716  97.2410148  58.5932161   6.8612113  96.9317270
  58.1151931   6.0274769  98.1014542  56.1186992   8.8449257  94.2237103
  55.2098211   8.5608290  94.3209572  56.1482076   9.2648335  93.3640410
  61.3506259  12.4555846  97.9928270  60.8968586  11.6146756  98.0493461
  60.7200226  13.0917245  98.3303050  60.2939179   3.3847832  99.2228938
  59.5561936   2.8725219  99.5539180  60.5465952   2.9448214  98.4112215
  59.7939199  14.2932343  98.9278088  60.0862173  14.8537400  98.2090454
  60.3037819  14.5860904  99.6831248  54.6671886   6.4577877 100.3246898
  54.7220496   5.5051714 100.2489375  53.8563088   6.6137317 100.8088196
  55.8163080  10.3858001  91.5625181  55.3782510   9.6693859  91.1030819
  56.5573521  10.6134115  91.0010273  52.6064246   5.0754937  98.0837277
  51.7932111   5.3749108  98.4902469  53.1023240   4.6810626  98.8011759
  54.7572824  15.0712694 100.0171542  54.7149003  15.2973540  99.0880074
  55.6735523  14.8376069 100.1657343  63.9336194   8.6615198  97.6201500
  63.7954093   8.8516794  96.6922689  63.5772413   9.4234580  98.0769551
  63.9605574  10.7291725 102.6312771  64.3942081  10.6367014 103.4795825
  64.6737155  10.7049225 101.9932787  52.8738625  11.9475723  99.8133504
  53.6679223  11.4526043  99.6116079  52.1630317  11.4193586  99.4501210
  57.6933469  14.3293819 104.1645872  57.7470491  14.8984755 104.9323588
  56.8248250  14.4995704 103.7999909  49.1821388   6.0918805  95.8893257
  48.2518976   6.0303260  96.1063219  49.2778860   5.5694758  95.0929898
  64.8221124  10.7715425 105.1645657  65.0157014  11.6761236 105.4104932
  64.7221742  10.3122844 105.9984242  55.4509901  12.5204745 103.4931341
  55.3120986  12.1523530 104.3657280  54.6624497  13.0352385 103.3215299
  56.0458052  17.6213842  94.8356878  56.2209808  17.1501885  95.6502501
  55.3590841  18.2479608  95.0638139  57.0015116  11.8986348 100.8820179
  56.6664948  11.8587118 101.7777829  56.5019061  11.2331064 100.4090589
  59.9374307   9.2442382  91.1557239  59.3203478   8.5189210  91.0590292
  59.4690796  10.0051742  90.8124313  50.6119138  20.7703204 101.6096738
  50.8515736  21.4021729 102.2875757  49.7688334  20.4191244 101.8962097
  51.7272853   3.4627807  90.2778543  50.8502320   3.3416607  89.9140790
  52.2030606   2.6713885  90.0257432  55.1247000  16.5782327 104.0138242
  55.0517171  17.3837298 104.5257547  54.6824393  16.7774293 103.1886264
  54.9136779  15.8154097  97.5241064  54.1304301  16.3575777  97.6179288
  55.6129524  16.3328077  97.9235305  58.2233429   1.6248726 100.1675269
  58.7202129   0.8718689  99.8476339  57.4520411   1.6613043  99.6018478
  66.0763187   7.3289092 101.8093561  66.0653063   8.2113807 101.4387494
  65.2080566   6.9760643 101.6148098  57.5845683  16.4769161 106.1696401
  58.2973655  17.1116626 106.0972302  57.0935712  16.5733027 105.3536403
  59.3063210  10.3820414  97.7413692  58.3719489  10.5021876  97.5718397
  59.4839879   9.4792880  97.4773702  62.6935761   6.2237733  98.2763727
  63.1596214   7.0565724  98.2024029  63.1443262   5.7582714  98.9808985
  60.7611993  12.5681554  95.2749879  61.0371836  12.4538149  96.1843753
  59.8916491  12.1699039  95.2362052  57.3966057  16.8167905  98.9182692
  57.5788451  15.9989561  99.3810445  58.2199043  17.0335597  98.4807582
  57.7308222  15.7436090  96.1797741  58.2595988  15.2328545  95.5667903
  57.9936442  15.4278620  97.0443274  51.0863970  16.7951207  98.9395517
  50.4174345  17.2797334  98.4559557  50.9476840  17.0420427  99.8538895
  55.2269239  18.8294950 105.5378175  55.7787547  18.9926572 106.3027260
  55.5675432  19.4199388 104.8658200  46.4551547   5.0569662  95.7191449
  46.7504988   4.1480340  95.6658503  45.5539583   5.0357401  95.3972451
  58.3637626  16.7776926 102.5241857  58.2388765  15.9766666 102.0152803
  59.0216717  17.2723119 102.0355827  60.4272534  14.5785946 104.1521407
  59.4802870  14.4591297 104.0799734  60.7755307  13.6908444 104.2347669
  48.1839389   2.7383759  95.8430774  47.8552095   1.8581138  95.6605880
  48.5378759   2.6831428  96.7307163  57.4318968  14.3738662 100.3525759
  57.2843930  13.4455370 100.5333330  58.2572461  14.3958753  99.8682835
  51.2981212   3.0256729  96.2106252  51.6377284   3.5542650  95.4884860
  51.7453332   3.3637135  96.9864818  61.0353089  15.1967221 101.4390632
  61.9599637  14.9910082 101.3015083  60.8668393  14.9483622 102.3479974
  53.2849359   1.5231351  94.4099544  54.0057721   1.9012604  93.9063261
  52.6614663   2.2420228  94.5134522  57.4280482   2.2276500  95.3457877
  57.6444096   3.1101138  95.0446705  56.9474549   1.8362713  94.6163519
  60.8248406  15.7152888  96.7952724  60.9985283  15.1499311  96.0426576
  61.3177297  16.5153783  96.6132214  53.4312982   1.0579141  97.2397081
  53.5528893   0.1295787  97.4387969  53.1415024   1.0717827  96.3275396
  66.6787797   8.4789311  98.4143023  67.1218943   7.7296636  98.0162147
  65.8014307   8.4699448  98.0316755  61.8123578  15.0319653  93.8949622
  62.5074483  15.6526345  94.1136937  62.1546728  14.1815004  94.1702000
  63.7115001  12.4819358  95.4236953  64.2366325  12.8206631  94.6986273
  63.6237354  11.5466374  95.2400087  55.3955662  18.5491342  99.7832206
  54.9560652  18.0567720 100.4765063  56.1463779  18.0064309  99.5424281
  47.8748001  14.7402882  99.7856834  48.7006021  14.4406654  99.4055478
  47.5242053  13.9710505 100.2346623  52.8429534  14.0929351 101.8554508
  52.2209543  13.4300056 101.5556735  53.5134401  14.1190482 101.1728155
  46.0756606  12.6589209 100.7445768  45.2388514  12.2311383 100.5629769
  46.0480251  12.8521652 101.6816559  52.4043041  12.6433274  95.3312968
  52.5531161  13.3268738  94.6779641  53.2109484  12.6238364  95.8462424
  65.0224979  12.3841670 108.2862901  64.7309787  12.7471650 109.1226362
  64.4097110  11.6708678 108.1076233  66.2220661   9.9494550 100.8065471
  67.0567553  10.3884354 100.9703031  66.3579790   9.4733203  99.9873717
  50.1595674   8.6698452  96.3374037  49.9141716   7.7660782  96.5354247
  50.3291589   8.6715602  95.3953515  49.4291322   4.4026809  93.8360199
  48.7360566   4.4771164  93.1800234  49.1843073   3.6387153  94.3581715
  55.9038447  15.1381404  92.8024716  55.3312414  15.7571592  92.3495187
  56.4771240  15.6880766  93.3364638  59.1235706  15.4218555  93.9333298
  60.0566379  15.3564116  94.1366173  59.0358919  16.2574821  93.4747831
  61.7523723  14.7384425  90.8937245  61.6737355  14.4044288  91.7873003
  62.5733390  15.2306193  90.8928718  64.4501914   7.6046164 104.1013564
  64.4178234   6.6662165 104.2873248  65.0602538   7.6830201 103.3679389
  56.2885245   6.4742217  90.1440768  57.2344350   6.3448425  90.2129186
  55.9099490   5.7356879  90.6210196  70.2678464   8.6662171 103.2419601
  70.9981852   8.4047459 103.8027304  69.6585409   7.9290893 103.2821669
  68.3493761   6.8070034 103.8394052  67.6226925   6.6725999 103.2310544
  67.9341048   7.1146862 104.6450770  54.4728162   4.3992194  90.0795653
  53.5659618   4.1025306  90.1558367  54.7504143   4.1022012  89.2129940
  56.0890228  -1.0570917  96.2339895  55.2790956  -1.4023832  96.6095141
  56.7774645  -1.3663373  96.8227506  53.2426947   1.2579129  90.2207632
  54.1046111   1.5834027  90.4803450  53.4277291   0.4710625  89.7080698
  61.3959583   0.1307655  97.3642855  60.8158252   0.7892459  96.9820908
  61.1295516  -0.6915000  96.9530273  60.1784461   2.2907746  96.4199204
  59.2910316   2.5757396  96.2019399  60.5938450   2.1301509  95.5726481
  63.5298997   2.3154267 100.1353543  64.3059388   2.8050719 100.4078160
  62.8047132   2.7412321 100.5925412  65.9671556   3.0281886 101.1927484
  66.5616047   2.7877622 100.4820792  66.0398140   2.3089016 101.8201020
  48.1868712  16.8715497 101.5070648  48.0523180  16.1115898 100.9408646
  47.7700774  17.5956397 101.0399437  59.3227675  12.0552420  90.5147224
  60.0263525  12.2602423  91.1304879  58.5990324  12.6229182  90.7796307
  60.1525485   7.8062282  96.6349494  60.0960686   8.2630833  95.7957126
  60.7053828   7.0452966  96.4572337  63.9630291   3.5952013  97.4599613
  63.7067225   3.1948649  98.2907821  63.3383159   4.3095807  97.3349753
  68.2742629   6.3348087  99.9670905  67.7142187   6.4041276 100.7402467
  67.6686132   6.1589071  99.2470401  51.3437838  17.7684814 101.7189091
  51.2270222  18.7130246 101.6167781  50.5230284  17.4658375 102.1074890
  61.2314372  12.4934949  92.5645684  62.0659976  12.0616148  92.3823159
  61.0698715  12.3216963  93.4922578  60.8860264   8.9967063  93.9302023
  60.8309068   8.8311334  92.9890467  60.2606320   9.7043096  94.0864213
  54.1956390  -1.5024828  93.5087341  54.1835060  -0.5582988  93.6655612
  55.0879812  -1.6854683  93.2146803  52.3692352  18.4213076 104.9345020
  53.2719598  18.4536686 105.2511514  52.1429722  17.4913527 104.9491355
  54.1245954  17.1744062 101.5955098  53.1741585  17.1745924 101.4819470
  54.4278440  16.4276797 101.0791133  69.8598647  23.0104601 102.6600861
  70.4977057  22.8911348 101.9564201  69.7419490  23.9585445 102.7188813
  66.6688354  22.9632029 102.5962385  66.3306865  22.8473093 101.7082920
  67.5378122  22.5623194 102.5763391  62.5275169  24.8167505  98.5859276
  61.9640034  24.7257442  97.8175564  62.4127564  23.9967410  99.0661769
  67.1508137  24.1166880 108.5548591  67.1396777  23.7219679 107.6829094
  67.3128776  23.3832953 109.1482362  60.0739601  26.3118697 101.4243497
  60.8660893  25.9709521 101.0089796  60.3136251  26.4213672 102.3445650
  68.1074728  28.4838473  93.8973741  67.4562708  29.0692553  93.5107755
  68.9019091  29.0144668  93.9568779  62.0330355  25.5727610  94.2960875
  62.8061231  25.0256597  94.1573751  62.3855754  26.4371859  94.5075337
  63.8715398  26.9003992 107.5027775  63.5805264  27.8049623 107.3874441
  64.5072382  26.9420520 108.2171844  64.7971605  24.2780841 104.0929134
  65.3935177  24.0536863 103.3786097  64.8546576  23.5365586 104.6954582
  64.3696633  21.7320276  91.9279325  64.6222154  21.2101797  91.1662788
  63.4321192  21.5686422  92.0306009  69.4139916  20.7356054  99.7354069
  70.2003005  20.3175478  99.3844486  69.6778620  21.6402147  99.9035717
  69.5849993  26.1728905  94.4342725  68.9495826  26.2463531  95.1463630
  69.2547400  26.7622504  93.7561805  74.8148343  20.6731288 100.6387047
  75.5473515  20.1030504 100.8724877  74.0587699  20.2852888 101.0793553
  64.0892922  23.6348382  94.1303700  63.9729180  22.9593285  94.7984785
  64.1995182  23.1480756  93.3135853  66.4324463  23.0958529  97.8350390
  66.0682670  22.5689150  98.5463311  67.2891579  22.7056998  97.6616875
  72.3373763  14.3852862 105.0981656  72.0057088  15.2548273 104.8742871
  71.7419377  14.0689146 105.7775686  66.0729950  18.1248429  92.8311738
  66.2404352  18.9928665  93.1982209  65.8827119  18.2875711  91.9073027
  68.8305283  26.5865408 104.4977568  68.5306006  27.4890447 104.3893376
  68.4856342  26.3197591 105.3498721  62.2817764  23.0379205 100.5314273
  61.3568261  22.9055419 100.7391965  62.5302177  23.8173424 101.0284215
  72.2302427  19.1047948 102.1775006  71.3219304  19.0363356 101.8833767
  72.1790022  19.5819893 103.0056831  66.0519170  20.5806086  93.8158405
  65.9318796  21.0263137  94.6543885  65.3571759  20.9291404  93.2571943
  59.6426575  22.6812478 101.3658062  59.7718956  22.9346957 102.2797474
  58.9624027  23.2740186 101.0462717  63.8126063  33.3509728  97.4648536
  63.7350092  34.3017553  97.5437017  63.2087706  33.0055601  98.1223462
  66.3043292  20.5237593 110.1209903  65.5276626  21.0831514 110.1112768
  66.9433855  21.0094376 110.6424773  74.0964073  17.3064386 103.9552880
  73.4538453  17.5996919 103.3092674  73.5919001  17.1917307 104.7606076
  71.7504237  21.0527559  94.6438739  72.6622093  21.2854946  94.4686436
  71.2413884  21.6364604  94.0813818  64.5589665  23.3323047 109.6827870
  65.3004349  23.8708091 109.4062694  63.8526650  23.9589336 109.8399422
  70.0345004  25.4752187 108.2800032  70.4428360  25.0334598 107.5354664
  69.3122266  24.9004815 108.5334224  66.3876074  20.4124794 105.6533588
  67.2337270  20.8364208 105.7968237  66.3274712  19.7558418 106.3472152
  70.3573819  26.0353378 102.0352320  69.7282681  26.1999092 101.3328388
  69.9699481  26.4494988 102.8063284  74.2363051  26.9707816  99.3896684
  73.5514089  27.3506717  98.8393717  74.3206900  27.5803142 100.1228632
  69.5375520  18.0729162 107.3114762  69.2936452  18.8271223 106.7749038
  69.8135450  18.4514510 108.1462009  71.4913982  24.6167775 105.9892028
  71.7030878  25.2599535 105.3126409  71.4443731  23.7830091 105.5213958
  69.0940211  17.2285595 102.8928600  68.2324690  17.5266849 103.1845337
  69.1202646  17.4455994 101.9609632  65.9101781  25.7727786  99.3002405
  66.3740126  26.0515489  98.5107028  65.6458579  24.8711231  99.1175496
  62.8025862  25.3199268 102.2382169  63.3727219  25.7486536 101.5999653
  63.3933974  25.0381852 102.9366354  64.8470667  21.8950938  96.1091971
  65.5494710  22.3471982  96.5765897  64.5151295  21.2534757  96.7371864
  63.2951028  20.4862695 110.4843180  62.6649689  21.1678976 110.7178577
  63.1887116  20.3745777 109.5396318  58.5896001  20.1534491 101.4109104
  57.7995055  20.4092020 100.9349215  59.0807248  20.9682829 101.5161145
  72.6059810  27.4939730 104.1614385  73.4277254  27.0919918 103.8797067
  72.6022213  27.3907964 105.1130501  60.5410746  20.5179070  98.3692581
  59.7441909  20.6297765  98.8876077  60.3136338  20.8565723  97.5033471
  66.3716414  27.0423774 106.3175096  66.4360846  27.5044181 107.1533267
  65.6627338  26.4121138 106.4457405  56.8733704  20.4064982 103.8424095
  57.1241742  21.2911991 104.1081671  57.4093252  20.2269583 103.0699187
  80.6965803  23.8378479 100.5099356  79.9429512  23.2685877 100.3543361
  80.8313345  23.8041143 101.4569991  66.0864431  28.7091881  96.1854076
  65.9510106  29.5543417  96.6138924  66.6274244  28.9111159  95.4220010
  59.5393829  26.2267319  96.7582001  60.0518349  27.0210569  96.9087566
  60.1916542  25.5293610  96.6915602  61.3488714  29.3433075  98.8404754
  61.5255342  30.2651040  98.6525738  62.1445547  29.0291495  99.2699134
  65.4899732  16.2041340 110.4388688  66.2309445  16.8048493 110.3593150
  65.7217655  15.4618978 109.8806730  60.6341070  21.3897707 108.7166917
  60.5194585  20.4882964 109.0174016  59.7785588  21.6361404 108.3651734
  67.7132908  29.3315448 110.3154418  67.2696762  28.5451826 109.9975322
  68.3750121  29.5194598 109.6498309  62.4720029  30.8611249 104.8415096
  63.0227454  30.7328312 104.0692090  61.6331505  31.1606138 104.4909989
  69.8114146  29.6118247 108.3435819  69.7932621  30.4327129 107.8516088
  70.7334066  29.4872323 108.5685960  66.2687200  27.1262377 109.1859328
  66.8015537  26.3650665 108.9558636  65.7401281  26.8336029 109.9283482
  69.4356895  12.2322443 104.7152969  69.0921164  13.1224085 104.6392080
  69.8035858  12.0424101 103.8522554  57.5042746  24.5555973  97.5341571
  58.3417968  24.9652982  97.3175279  57.6821013  23.6155416  97.5041765
  69.4007178  22.2231054  93.2225404  68.8853801  22.9935659  93.4613792
  69.1284486  21.5496190  93.8458466  66.9854289  17.0680755  98.2810643
  66.1295885  16.6787605  98.1016282  67.3981241  17.1472716  97.4210428
  68.5153435  14.6027098 102.6802203  68.0118231  14.5657233 101.8670008
  68.8084042  15.5119841 102.7398859  64.7596321  14.6865828 101.6868384
  65.6249318  14.4908636 101.3274274  64.8273830  14.4576180 102.6137741
  74.3741452  24.9763409  95.1578578  73.5970895  24.6374568  94.7133740
  75.0532933  24.9816032  94.4833543  69.1893481  20.0958146  95.0485186
  68.8843617  20.4104295  95.8995329  70.1423923  20.1739566  95.0912519
  67.6339913  26.2548369  96.6978140  67.1061274  25.5201129  96.3851377
  67.1327416  27.0323046  96.4518108  72.6132759  24.4497390 101.8145186
  71.9556433  25.1396651 101.9025315  73.4173158  24.8393822 102.1579172
  62.3658640  16.9168036  99.0584751  62.9402392  16.6943217  98.3257944
  62.9529623  16.9856730  99.8113352  71.4238218  22.8041763  99.8649128
  71.9370099  23.4371754 100.3670837  72.0739441  22.2042958  99.4992488
  62.6928227  18.9472497  93.0780636  61.8565540  19.2847183  93.3989911
  62.5532997  18.8121477  92.1407773  64.6681308  13.7909285  97.7859821
  64.0145720  13.4758302  97.1616435  64.6261782  13.1685025  98.5119643
  65.7792513  24.0728580  89.7013113  64.8719575  23.8417833  89.9004262
  66.2763545  23.2766199  89.8887094  68.6860592  32.7826087  92.6209799
  68.0122291  33.0857784  93.2294757  69.0726414  33.5855167  92.2715256
  67.9019048  20.2791218 102.1107468  66.9841610  20.5006165 101.9529156
  68.3179192  20.3537529 101.2519176  68.6854096  21.6782634  97.2410148
  69.4325915  22.1904031  96.9317270  68.9545686  21.3566687  98.1014542
  66.9580746  24.1741175  94.2237103  66.0491966  23.8900207  94.3209572
  66.9875830  24.5940253  93.3640410  72.1900014  27.7847764  97.9928270
  71.7362341  26.9438674  98.0493461  71.5593981  28.4209162  98.3303050
  71.1332933  18.7139750  99.2228938  70.3955690  18.2017136  99.5539180
  71.3859707  18.2740132  98.4112215  70.6332953  29.6224261  98.9278088
  70.9255927  30.1829318  98.2090454  71.1431574  29.9152822  99.6831248
  71.2344561  11.4916002  99.8170707  71.5403438  10.6313366  99.5296622
  71.9597166  12.0833622  99.6169701  57.5268917  21.8946689  98.2052305
  57.3293317  21.3016049  97.4803371  56.9715581  21.5898899  98.9228244
  65.5065640  21.7869795 100.3246898  65.5614250  20.8343632 100.2489375
  64.6956842  21.9429234 100.8088196  66.6556834  25.7149918  91.5625181
  66.2176264  24.9985777  91.1030819  67.3967275  25.9426033  91.0010273
  63.4458000  20.4046855  98.0837277  62.6325866  20.7041025  98.4902469
  63.9416995  20.0102544  98.8011759  65.5966578  30.4004612 100.0171542
  65.5542757  30.6265458  99.0880074  66.5129277  30.1667986 100.1657343
  69.0432212  20.8688679 106.9152171  69.3981600  21.0960153 107.7746637
  69.6904343  21.2007056 106.2929426  74.7729949  23.9907115  97.6201500
  74.6347848  24.1808711  96.6922689  74.4166168  24.7526498  98.0769551
  62.9372075  17.9765210 103.6998512  63.5771454  17.8353970 103.0021475
  62.1049606  17.6899724 103.3237114  74.7999329  26.0583642 102.6312771
  75.2335835  25.9658931 103.4795825  75.5130909  26.0341143 101.9932787
  63.7132379  27.2767641  99.8133504  64.5072978  26.7817961  99.6116079
  63.0024071  26.7485504  99.4501210  68.5327223  29.6585736 104.1645872
  68.5864246  30.2276673 104.9323588  67.6642005  29.8287621 103.7999909
  60.0215142  21.4210723  95.8893257  59.0912731  21.3595178  96.1063219
  60.1172614  20.8986675  95.0929898  59.9400692  17.9465535  98.4771499
  60.2007509  18.8610869  98.3680659  60.7617864  17.4789978  98.6268112
  61.4125617  19.3603293 105.6470323  62.0848670  19.1520655 104.9982972
  60.5855403  19.1625379 105.2075556  75.6614878  26.1007343 105.1645657
  75.8550768  27.0053153 105.4104932  75.5615496  25.6414762 105.9984242
  67.3151189  15.9865234 107.6635984  66.6679104  16.6855183 107.5700460
  68.0852204  16.4201377 108.0312232  70.7229987  26.2514086 110.7386537
  70.5715493  26.0224637 109.8216621  70.7134666  27.2084687 110.7517882
  67.4915323  23.8245998 105.7232804  68.4207383  23.9757158 105.5501771
  67.0706353  23.9130019 104.8681450  66.2903655  27.8496663 103.4931341
  66.1514741  27.4815447 104.3657280  65.5018251  28.3644302 103.3215299
  66.8851807  32.9505759  94.8356878  67.0603563  32.4793802  95.6502501
  66.1984595  33.5771526  95.0638139  67.8408870  27.2278266 100.8820179
  67.5058703  27.1879035 101.7777829  67.3412816  26.5622981 100.4090589
  61.8153114  22.6345896 106.4072760  61.6772912  21.9026134 107.0084299
  62.7258038  22.5454796 106.1256948  70.7768062  24.5734300  91.1557239
  70.1597232  23.8481128  91.0590292  70.3084550  25.3343660  90.8124313
  64.4435415  22.3465855 105.8956440  65.1535033  21.7059047 105.8543058
  64.4004723  22.5978750 106.8182621  72.4322193  29.2833208 108.8163019
  72.3734740  28.5992428 108.1493602  72.8341712  30.0252198 108.3643645
  63.1564349  19.3331073 107.7152079  62.6201706  18.8821811 108.3673676
  62.5681057  19.4676982 106.9722544  61.4512892  36.0995122 101.6096738
  61.6909490  36.7313646 102.2875757  60.6082089  35.7483162 101.8962097
  62.5666608  18.7919724  90.2778543  61.6896074  18.6708525  89.9140790
  63.0424361  18.0005802  90.0257432  72.4339601  27.2472792 107.0476999
  71.5466380  26.9098714 107.1703398  73.0038152  26.5155823 107.2845764
  54.0868748  23.5796884 100.3720050  54.7739788  23.2658614  99.7841066
  53.9316877  24.4838249 100.0987302  58.8903470  18.4687080 104.8005074
  58.8061659  17.8612750 104.0655484  58.0686176  18.9596099 104.8014570
  65.9640754  31.9074245 104.0138242  65.8910926  32.7129216 104.5257547
  65.5218147  32.1066210 103.1886264  65.7530534  31.1446015  97.5241064
  64.9698056  31.6867695  97.6179288  66.4523279  31.6619994  97.9235305
  69.0627184  16.9540644 100.1675269  69.5595883  16.2010606  99.8476339
  68.2914165  16.9904961  99.6018478  76.9156941  22.6581010 101.8093561
  76.9046818  23.5405725 101.4387494  76.0474321  22.3052560 101.6148098
  68.4239438  31.8061079 106.1696401  69.1367410  32.4408543 106.0972302
  67.9329466  31.9024945 105.3536403  70.1456965  25.7112331  97.7413692
  69.2113243  25.8313794  97.5718397  70.3233633  24.8084798  97.4773702
  65.6462153  19.0958027  99.8946954  65.2759940  18.5429067 100.5827859
  66.1421245  18.4916160  99.3421954  73.5329516  21.5529650  98.2763727
  73.9989968  22.3857642  98.2024029  73.9837016  21.0874632  98.9808985
  63.4751351  29.5555522 106.9901972  64.1760811  30.1892005 107.1431366
  63.0046466  29.8970254 106.2297611  71.6005747  27.8973472  95.2749879
  71.8765591  27.7830066  96.1843753  70.7310246  27.4990957  95.2362052
  71.5046179  13.9210237 102.3154628  70.5909258  14.1514464 102.4836835
  71.9339280  14.0048682 103.1668660  71.2752637  22.1100129 104.8154522
  70.6224087  22.3576037 104.1606975  71.6533017  21.2964268 104.4816999
  68.2359811  32.1459823  98.9182692  68.4182206  31.3281479  99.3810445
  69.0592797  32.3627515  98.4807582  68.5701977  31.0728008  96.1797741
  69.0989743  30.5620462  95.5667903  68.8330196  30.7570538  97.0443274
  67.3240210  22.8519941 111.3020559  66.6480847  22.7514070 111.9722934
  68.1467844  22.6959154 111.7656556  59.0719069  29.0891877 103.9233074
  59.6572506  28.3435565 104.0560978  58.8743908  29.3995834 104.8069738
  61.9257724  32.1243124  98.9395517  61.2568100  32.6089252  98.4559557
  61.7870594  32.3712345  99.8538895  53.6636724  21.6597477 102.6437517
  53.7020824  21.1261068 103.4374636  53.1577017  21.1332683 102.0248495
  66.0662993  34.1586868 105.5378175  66.6181301  34.3218489 106.3027260
  66.4069187  34.7491306 104.8658200  61.0427486  16.5062018 106.1400060
  61.1068813  17.3676849 105.7277457  60.9794607  15.8936019 105.4072418
  60.5179759  18.5785150 109.7873094  61.1451798  18.1962228 110.4010618
  59.6607678  18.3599352 110.1528786  70.9173867  28.9848125 111.3926829
  71.4613771  29.5978084 110.8981784  70.3360712  29.5427704 111.9093842
  57.2945302  20.3861579  95.7191449  57.5898743  19.4772258  95.6658503
  56.3933337  20.3649319  95.3972451  69.2031380  32.1068843 102.5241857
  69.0782520  31.3058583 102.0152803  69.8610471  32.6015037 102.0355827
  60.8239549  18.4617576 101.7018997  60.1026134  19.0753544 101.5626471
  61.6132804  18.9975341 101.6235643  71.2666289  29.9077864 104.1521407
  70.3196624  29.7883215 104.0799734  71.6149062  29.0200362 104.2347669
  63.6265862  15.7972002 107.9759649  64.1500264  16.0434299 108.7385958
  63.4078195  16.6292037 107.5562787  59.0233143  18.0675677  95.8430774
  58.6945849  17.1873056  95.6605880  59.3772514  18.0123346  96.7307163
  68.2712722  29.7030580 100.3525759  68.1237684  28.7747287 100.5333330
  69.0966216  29.7250670  99.8682835  62.1374966  18.3548647  96.2106252
  62.4771039  18.8834568  95.4884860  62.5847087  18.6929053  96.9864818
  71.8746844  30.5259139 101.4390632  72.7993391  30.3202000 101.3015083
  71.7062147  30.2775540 102.3479974  64.8318407  16.7385698 105.6609320
  64.4915227  15.9393511 106.0630000  64.1257413  17.0387408 105.0886153
  65.4834879  13.8235010 104.1136643  66.3060948  13.3495488 103.9915533
  65.7272942  14.6025494 104.6135329  64.1243113  16.8523268  94.4099544
  64.8451476  17.2304521  93.9063261  63.5008418  17.5712145  94.5134522
  68.2674236  17.5568417  95.3457877  68.4837851  18.4393055  95.0446705
  67.7868303  17.1654631  94.6163519  63.0073458  20.5154131 101.9228621
  62.8618038  20.8294434 102.8152903  62.5298661  21.1339031 101.3699520
  64.8669841  17.5056679 101.9709511  64.8531409  16.6097772 101.6341809
  65.5842269  17.5127342 102.6047797  66.7195971  17.9394019 104.0162638
  66.4613749  18.8611089 104.0146969  66.1881012  17.5424453 104.7063102
  71.6642160  31.0444806  96.7952724  71.8379038  30.4791228  96.0426576
  72.1571051  31.8445701  96.6132214  57.4819120  23.0559475 104.8616283
  56.9372588  23.8319283 104.9936557  58.3598470  23.4030280 104.7035404
  64.2706737  16.3871059  97.2397081  64.3922648  15.4587705  97.4387969
  63.9808779  16.4009745  96.3275396  67.1397927  14.0725969 100.3763801
  67.1619624  14.1365302  99.4215780  67.5565986  13.2330478 100.5704307
  77.5181551  23.8081229  98.4143023  77.9612697  23.0588554  98.0162147
  76.6408062  23.7991365  98.0316755  72.6517333  30.3611570  93.8949622
  73.3468237  30.9818263  94.1136937  72.9940483  29.5106922  94.1702000
  58.2685142  22.1829371 107.7546439  57.5266878  22.3312007 108.3411070
  57.9477886  22.4437637 106.8913189  74.5508756  27.8111276  95.4236953
  75.0760080  28.1498549  94.6986273  74.4631108  26.8758291  95.2400087
  66.2128804  31.7245350 107.5526829  66.5215931  31.4794496 108.4249529
  67.0104286  31.9291988 107.0645700  66.2349416  33.8783259  99.7832206
  65.7954407  33.3859638 100.4765063  66.9857533  33.3356227  99.5424281
  58.7141755  30.0694800  99.7856834  59.5399775  29.7698572  99.4055478
  58.3635807  29.3002422 100.2346623  63.6823289  29.4221268 101.8554508
  63.0603298  28.7591973 101.5556735  64.3528155  29.4482400 101.1728155
  56.9150360  27.9881127 100.7445768  56.0782269  27.5603301 100.5629769
  56.8874006  28.1813570 101.6816559  63.7547816  17.9003056 111.4487014
  63.8035972  18.7765179 111.0664783  64.2970330  17.3580449 110.8758657
  74.2402662  28.4444180 110.7288151  73.4498205  28.4268318 110.1892650
  74.0036016  28.9832473 111.4837187  74.3600537  25.2936646 108.0420879
  74.4098542  25.1286653 108.9836402  74.2514460  24.4263905 107.6518760
  63.2436795  27.9725192  95.3312968  63.3924916  28.6560656  94.6779641
  64.0503239  27.9530282  95.8462424  71.6504299  21.2767574 109.3580186
  72.5514162  21.1374039 109.0664184  71.7252274  21.4422029 110.2978363
  65.9847105  18.6534429 108.2033372  65.1150414  18.9467995 107.9315961
  66.2206585  19.2374874 108.9240636  75.8618734  27.7133587 108.2862901
  75.5703542  28.0763568 109.1226362  75.2490865  27.0000596 108.1076233
  77.0614416  25.2786467 100.8065471  77.8961307  25.7176271 100.9703031
  77.1973545  24.8025120  99.9873717  74.1105922  22.8366202 106.7542959
  74.5860043  23.0293848 105.9461810  73.1871487  22.8925388 106.5086342
  60.9989428  23.9990369  96.3374037  60.7535470  23.0952699  96.5354247
  61.1685343  24.0007520  95.3953515  68.6886138  14.8714046 105.7198793
  69.2068082  15.6075073 105.3945281  68.3341271  15.1778039 106.5545552
  60.2685076  19.7318727  93.8360199  59.5754321  19.8063082  93.1800234
  60.0236828  18.9679070  94.3581715  68.9398733  11.2914328 101.2399689
  69.2200486  10.6237517 101.8660116  69.7249339  11.4843424 100.7274353
  66.7432201  30.4673322  92.8024716  66.1706168  31.0863509  92.3495187
  67.3164995  31.0172684  93.3364638  72.8107591  19.7131962 104.9871264
  73.7625014  19.8130060 105.0083488  72.6411041  18.9210231 105.4969349
  70.8321970  16.7987545 105.1730665  70.2371902  17.0792558 104.4777154
  70.5471667  17.2881446 105.9447406  69.9629461  30.7510472  93.9333298
  70.8960134  30.6856034  94.1366173  69.8752674  31.5866739  93.4747831
  72.5917477  30.0676343  90.8937245  72.5131109  29.7336206  91.7873003
  73.4127144  30.5598110  90.8928718  75.2895669  22.9338082 104.1013564
  75.2571989  21.9954083 104.2873248  75.8996292  23.0122119 103.3679389
  67.1279000  21.8034135  90.1440768  68.0738104  21.6740343  90.2129186
  66.7493244  21.0648797  90.6210196  75.4390157  19.7249125 104.1471847
  74.9229206  18.9407582 103.9601776  76.3230106  19.3967842 104.3118367
  73.1000884  13.4690141 100.1067660  72.9025705  13.1605229 100.9910992
  73.7100590  14.1951780 100.2365590  81.1072219  23.9954089 103.2419601
  81.8375607  23.7339377 103.8027304  80.4979164  23.2582811 103.2821669
  79.1887516  22.1361951 103.8394052  78.4620679  22.0017916 103.2310544
  78.7734803  22.4438780 104.6450770  67.0117692  25.8551881 111.6041425
  67.9320702  26.0330480 111.7981472  66.9767275  24.9107926 111.4521124
  65.3121917  19.7284111  90.0795653  64.4053372  19.4317224  90.1558367
  65.5897898  19.4313929  89.2129940  56.2299857  21.0490475 100.5294700
  55.9102641  20.1955783 100.2369074  55.6833285  21.2639053 101.2852667
  60.0079765  23.7652916 104.2464206  60.2265774  24.6970023 104.2652240
  60.4205538  23.4060890 105.0319010  66.9283982  14.2721001  96.2339895
  66.1184711  13.9268086  96.6095141  67.6168399  13.9628545  96.8227506
  68.8574531  13.3499048  97.8564191  69.4105569  13.7694501  98.5154214
  69.0944617  12.4234796  97.8987147  64.0820701  16.5871046  90.2207632
  64.9439865  16.9125945  90.4803450  64.2671045  15.8002542  89.7080698
  56.0988117  24.6693386 102.4987821  55.4051588  24.2547339 101.9857776
  56.8461108  24.7113923 101.9021240  72.2353338  15.4599573  97.3642855
  71.6552007  16.1184377  96.9820908  71.9689270  14.6376917  96.9530273
  70.6856904  14.8604631  99.5664176  71.1856682  14.9721165  98.7578495
  71.3292512  14.5565683 100.2064984  64.7438900  22.7683260 112.4532017
  64.2605982  23.5683620 112.6595906  64.8299839  22.7791205 111.4999461
  58.0124860  24.6011640 100.3753836  57.9895548  24.6999327  99.4235719
  58.3225496  25.4476791 100.6971002  60.6712237  26.6587795 104.4900451
  61.6255491  26.6271737 104.4230382  60.4724761  26.1978419 105.3050676
  61.2611620  25.2288911 107.0571248  62.0804509  25.7232990 107.0806086
  61.5348427  24.3120879 107.0288816  71.0178216  17.6199663  96.4199204
  70.1304071  17.9049314  96.2019399  71.4332205  17.4593427  95.5726481
  74.3692752  17.6446184 100.1353543  75.1453142  18.1342637 100.4078160
  73.6440886  18.0704238 100.5925412  76.8065311  18.3573803 101.1927484
  77.4009801  18.1169539 100.4820792  76.8791894  17.6380934 101.8201020
  59.0262466  32.2007414 101.5070648  58.8916934  31.4407815 100.9408646
  58.6094529  32.9248314 101.0399437  70.1621429  27.3844338  90.5147224
  70.8657279  27.5894340  91.1304879  69.4384078  27.9521100  90.7796307
  70.9919240  23.1354199  96.6349494  70.9354441  23.5922751  95.7957126
  71.5447582  22.3744884  96.4572337  74.8024045  18.9243931  97.4599613
  74.5460980  18.5240567  98.2907821  74.1776913  19.6387725  97.3349753
  79.1136383  21.6640004  99.9670905  78.5535941  21.7333194 100.7402467
  78.5079887  21.4880989  99.2470401  62.1831592  33.0976731 101.7189091
  62.0663976  34.0422164 101.6167781  61.3624038  32.7950293 102.1074890
  72.0708127  27.8226867  92.5645684  72.9053731  27.3908066  92.3823159
  71.9092470  27.6508881  93.4922578  71.7254019  24.3258980  93.9302023
  71.6702823  24.1603252  92.9890467  71.1000074  25.0335013  94.0864213
  56.5146534  19.5627045 107.7563445  57.1605397  19.0525999 108.2450670
  56.3063685  20.2995726 108.3306871  69.0399926  26.6307892 113.2555586
  69.9091086  26.8048545 112.8942221  68.5606677  27.4502309 113.1331315
  65.0350144  13.8267089  93.5087341  65.0228814  14.7708929  93.6655612
  65.9273566  13.6437235  93.2146803  63.2086106  33.7504993 104.9345020
  64.1113353  33.7828604 105.2511514  62.9823476  32.8205444 104.9491355
  64.9639708  32.5035980 101.5955098  64.0135339  32.5037841 101.4819470
  65.2672194  31.7568714 101.0791133  68.8502264  10.4209866  97.7633278
  68.0834660   9.8668353  97.9089961  69.2612969  10.4931735  98.6247430
  80.6992402  38.3396518 102.6600861  81.3370812  38.2203266 101.9564201
  80.5813245  39.2877362 102.7188813  77.5082108  38.2923946 102.5962385
  77.1700620  38.1765011 101.7082920  78.3771876  37.8915111 102.5763391
  73.3668924  40.1459423  98.5859276  72.8033789  40.0549360  97.8175564
  73.2521319  39.3259327  99.0661769  77.9901891  39.4458798 108.5548591
  77.9790532  39.0511596 107.6829094  78.1522531  38.7124871 109.1482362
  70.9133356  41.6410614 101.4243497  71.7054648  41.3001439 101.0089796
  71.1530006  41.7505589 102.3445650  78.9468482  43.8130390  93.8973741
  78.2956462  44.3984471  93.5107755  79.7412845  44.3436585  93.9568779
  72.8724110  40.9019528  94.2960875  73.6454986  40.3548515  94.1573751
  73.2249508  41.7663777  94.5075337  74.7109152  42.2295910 107.5027775
  74.4199018  43.1341541 107.3874441  75.3466137  42.2712437 108.2171844
  75.6365359  39.6072758 104.0929134  76.2328931  39.3828781 103.3786097
  75.6940331  38.8657504 104.6954582  75.2090387  37.0612194  91.9279325
  75.4615908  36.5393715  91.1662788  74.2714947  36.8978339  92.0306009
  80.2533670  36.0647972  99.7354069  81.0396759  35.6467395  99.3844486
  80.5172375  36.9694064  99.9035717  80.4243748  41.5020822  94.4342725
  79.7889581  41.5755449  95.1463630  80.0941154  42.0914421  93.7561805
  85.6542097  36.0023205 100.6387047  86.3867269  35.4322422 100.8724877
  84.8981453  35.6144806 101.0793553  74.9286676  38.9640300  94.1303700
  74.8122934  38.2885203  94.7984785  75.0388936  38.4772674  93.3135853
  77.2718217  38.4250447  97.8350390  76.9076424  37.8981068  98.5463311
  78.1285333  38.0348916  97.6616875  83.1767518  29.7144779 105.0981656
  82.8450843  30.5840190 104.8742871  82.5813131  29.3981063 105.7775686
  76.9123704  33.4540346  92.8311738  77.0798106  34.3220583  93.1982209
  76.7220873  33.6167628  91.9073027  79.6699037  41.9157325 104.4977568
  79.3699760  42.8182364 104.3893376  79.3250097  41.6489509 105.3498721
  73.1211519  38.3671122 100.5314273  72.1962015  38.2347336 100.7391965
  73.3695932  39.1465341 101.0284215  83.0696181  34.4339866 102.1775006
  82.1613058  34.3655274 101.8833767  83.0183777  34.9111811 103.0056831
  76.8912925  35.9098004  93.8158405  76.7712550  36.3555055  94.6543885
  76.1965513  36.2583322  93.2571943  70.4820330  38.0104396 101.3658062
  70.6112711  38.2638875 102.2797474  69.8017781  38.6032104 101.0462717
  74.6519817  48.6801646  97.4648536  74.5743847  49.6309471  97.5437017
  74.0481461  48.3347518  98.1223462  77.1437047  35.8529511 110.1209903
  76.3670381  36.4123431 110.1112768  77.7827610  36.3386294 110.6424773
  84.9357827  32.6356304 103.9552880  84.2932208  32.9288837 103.3092674
  84.4312756  32.5209224 104.7606076  82.5897991  36.3819477  94.6438739
  83.5015847  36.6146864  94.4686436  82.0807638  36.9656521  94.0813818
  75.3983419  38.6614965 109.6827870  76.1398103  39.2000008 109.4062694
  74.6920405  39.2881253 109.8399422  80.8738759  40.8044105 108.2800032
  81.2822115  40.3626516 107.5354664  80.1516020  40.2296733 108.5334224
  77.2269829  35.7416712 105.6533588  78.0731024  36.1656125 105.7968237
  77.1668466  35.0850336 106.3472152  81.1967573  41.3645296 102.0352320
  80.5676436  41.5291010 101.3328388  80.8093235  41.7786905 102.8063284
  85.0756805  42.2999733  99.3896684  84.3907843  42.6798635  98.8393717
  85.1600655  42.9095060 100.1228632  80.3769274  33.4021080 107.3114762
  80.1330206  34.1563141 106.7749038  80.6529205  33.7806428 108.1462009
  82.3307737  39.9459692 105.9892028  82.5424632  40.5891452 105.3126409
  82.2837485  39.1122009 105.5213958  79.9333966  32.5577513 102.8928600
  79.0718445  32.8558767 103.1845337  79.9596401  32.7747912 101.9609632
  76.7495535  41.1019704  99.3002405  77.2133881  41.3807407  98.5107028
  76.4852333  40.2003148  99.1175496  73.6419616  40.6491185 102.2382169
  74.2120973  41.0778454 101.5999653  74.2327728  40.3673770 102.9366354
  75.6864421  37.2242856  96.1091971  76.3888465  37.6763900  96.5765897
  75.3545050  36.5826675  96.7371864  74.1344783  35.8154613 110.4843180
  73.5043443  36.4970894 110.7178577  74.0280871  35.7037694 109.5396318
  69.4289755  35.4826409 101.4109104  68.6388809  35.7383937 100.9349215
  69.9201003  36.2974747 101.5161145  83.4453565  42.8231648 104.1614385
  84.2671009  42.4211835 103.8797067  83.4415968  42.7199882 105.1130501
  71.3804501  35.8470988  98.3692581  70.5835664  35.9589682  98.8876077
  71.1530093  36.1857640  97.5033471  77.2110168  42.3715691 106.3175096
  77.2754601  42.8336098 107.1533267  76.5021092  41.7413056 106.4457405
  67.7127458  35.7356899 103.8424095  67.9635497  36.6203909 104.1081671
  68.2487007  35.5561501 103.0699187  91.5359558  39.1670396 100.5099356
  90.7823266  38.5977794 100.3543361  91.6707099  39.1333061 101.4569991
  76.9258186  44.0383799  96.1854076  76.7903861  44.8835334  96.6138924
  77.4667998  44.2403076  95.4220010  73.4125526  30.1175379 112.8468431
  73.0192471  29.5641577 113.5216075  74.2291666  30.4285957 113.2374949
  70.3787583  41.5559237  96.7582001  70.8912104  42.3502487  96.9087566
  71.0310296  40.8585527  96.6915602  72.1882468  44.6724993  98.8404754
  72.3649096  45.5942958  98.6525738  72.9839302  44.3583412  99.2699134
  76.3293487  31.5333258 110.4388688  77.0703200  32.1340411 110.3593150
  76.5611409  30.7910895 109.8806730  71.4734825  36.7189625 108.7166917
  71.3588340  35.8174882 109.0174016  70.6179342  36.9653322 108.3651734
  78.5526662  44.6607365 110.3154418  78.1090517  43.8743744 109.9975322
  79.2143876  44.8486516 109.6498309  73.3113784  46.1903167 104.8415096
  73.8621209  46.0620230 104.0692090  72.4725259  46.4898056 104.4909989
  80.6507900  44.9410165 108.3435819  80.6326376  45.7619046 107.8516088
  81.5727820  44.8164240 108.5685960  77.1080955  42.4554295 109.1859328
  77.6409291  41.6942583 108.9558636  76.5795036  42.1627946 109.9283482
  80.2750650  27.5614361 104.7152969  79.9314919  28.4516002 104.6392080
  80.6429612  27.3716018 103.8522554  68.3436500  39.8847891  97.5341571
  69.1811722  40.2944899  97.3175279  68.5214768  38.9447333  97.5041765
  80.2400932  37.5522972  93.2225404  79.7247556  38.3227576  93.4613792
  79.9678241  36.8788108  93.8458466  77.8248043  32.3972672  98.2810643
  76.9689640  32.0079523  98.1016282  78.2374995  32.4764633  97.4210428
  79.3547190  29.9319016 102.6802203  78.8511986  29.8949151 101.8670008
  79.6477797  30.8411758 102.7398859  75.5990076  30.0157745 101.6868384
  76.4643073  29.8200554 101.3274274  75.6667585  29.7868097 102.6137741
  85.2135206  40.3055326  95.1578578  84.4364649  39.9666486  94.7133740
  85.8926687  40.3107950  94.4833543  80.0287235  35.4250064  95.0485186
  79.7237371  35.7396213  95.8995329  80.9817678  35.5031484  95.0912519
  78.4733667  41.5840287  96.6978140  77.9455029  40.8493047  96.3851377
  77.9721170  42.3614963  96.4518108  83.4526513  39.7789308 101.8145186
  82.7950188  40.4688569 101.9025315  84.2566913  40.1685740 102.1579172
  73.2052395  32.2459953  99.0584751  73.7796147  32.0235135  98.3257944
  73.7923377  32.3148648  99.8113352  82.2631972  38.1333680  99.8649128
  82.7763854  38.7663672 100.3670837  82.9133196  37.5334876  99.4992488
  73.5321982  34.2764414  93.0780636  72.6959294  34.6139101  93.3989911
  73.3926752  34.1413394  92.1407773  75.5075063  29.1201202  97.7859821
  74.8539475  28.8050219  97.1616435  75.4655537  28.4976943  98.5119643
  76.6186267  39.4020497  89.7013113  75.7113329  39.1709751  89.9004262
  77.1157299  38.6058117  89.8887094  79.5254346  48.1118005  92.6209799
  78.8516045  48.4149701  93.2294757  79.9120168  48.9147085  92.2715256
  78.7412803  35.6083136 102.1107468  77.8235364  35.8298083 101.9529156
  79.1572947  35.6829446 101.2519176  79.5247851  37.0074552  97.2410148
  80.2719670  37.5195949  96.9317270  79.7939440  36.6858604  98.1014542
  77.7974501  39.5033092  94.2237103  76.8885720  39.2192125  94.3209572
  77.8269585  39.9232171  93.3640410  83.0293768  43.1139682  97.9928270
  82.5756095  42.2730592  98.0493461  82.3987735  43.7501080  98.3303050
  81.9726688  34.0431668  99.2228938  81.2349445  33.5309054  99.5539180
  82.2253461  33.6032049  98.4112215  81.4726708  44.9516178  98.9278088
  81.7649682  45.5121236  98.2090454  81.9825328  45.2444739  99.6831248
  82.0738315  26.8207920  99.8170707  82.3797192  25.9605283  99.5296622
  82.7990920  27.4125540  99.6169701  68.3662671  37.2238606  98.2052305
  68.1687071  36.6307967  97.4803371  67.8109335  36.9190817  98.9228244
  76.3459395  37.1161713 100.3246898  76.4008005  36.1635549 100.2489375
  75.5350597  37.2721152 100.8088196  77.4950589  41.0441836  91.5625181
  77.0570019  40.3277695  91.1030819  78.2361030  41.2717951  91.0010273
  74.2851755  35.7338773  98.0837277  73.4719620  36.0332943  98.4902469
  74.7810749  35.3394461  98.8011759  76.4360333  45.7296530 100.0171542
  76.3936512  45.9557376  99.0880074  77.3523032  45.4959904 100.1657343
  79.8825967  36.1980597 106.9152171  80.2375354  36.4252070 107.7746637
  80.5298098  36.5298974 106.2929426  85.6123703  39.3199033  97.6201500
  85.4741602  39.5100629  96.6922689  85.2559922  40.0818416  98.0769551
  73.7765830  33.3057128 103.6998512  74.4165209  33.1645887 103.0021475
  72.9443360  33.0191641 103.3237114  85.6393083  41.3875560 102.6312771
  86.0729590  41.2950849 103.4795825  86.3524664  41.3633060 101.9932787
  74.5526134  42.6059559  99.8133504  75.3466732  42.1109879  99.6116079
  73.8417826  42.0777422  99.4501210  79.3720978  44.9877654 104.1645872
  79.4258000  45.5568590 104.9323588  78.5035759  45.1579539 103.7999909
  70.8608897  36.7502640  95.8893257  69.9306485  36.6887096  96.1063219
  70.9566369  36.2278593  95.0929898  70.7794446  33.2757453  98.4771499
  71.0401263  34.1902786  98.3680659  71.6011618  32.8081896  98.6268112
  72.2519371  34.6895210 105.6470323  72.9242425  34.4812572 104.9982972
  71.4249158  34.4917296 105.2075556  86.5008633  41.4299261 105.1645657
  86.6944523  42.3345071 105.4104932  86.4009251  40.9706680 105.9984242
  78.1544943  31.3157151 107.6635984  77.5072858  32.0147101 107.5700460
  78.9245959  31.7493295 108.0312232  81.5623741  41.5806003 110.7386537
  81.4109248  41.3516555 109.8216621  81.5528421  42.5376605 110.7517882
  78.3309078  39.1537916 105.7232804  79.2601138  39.3049076 105.5501771
  77.9100108  39.2421937 104.8681450  77.1297410  43.1788581 103.4931341
  76.9908495  42.8107365 104.3657280  76.3412006  43.6936220 103.3215299
  77.7245561  48.2797677  94.8356878  77.8997317  47.8085720  95.6502501
  77.0378350  48.9063443  95.0638139  78.6802625  42.5570183 100.8820179
  78.3452457  42.5170953 101.7777829  78.1806570  41.8914899 100.4090589
  72.6546869  37.9637813 106.4072760  72.5166667  37.2318052 107.0084299
  73.5651792  37.8746713 106.1256948  81.6161816  39.9026218  91.1557239
  80.9990987  39.1773046  91.0590292  81.1478305  40.6635578  90.8124313
  75.2829169  37.6757773 105.8956440  75.9928788  37.0350965 105.8543058
  75.2398477  37.9270667 106.8182621  83.2715948  44.6125126 108.8163019
  83.2128494  43.9284346 108.1493602  83.6735466  45.3544116 108.3643645
  73.9958103  34.6622990 107.7152079  73.4595460  34.2113729 108.3673676
  73.4074812  34.7968899 106.9722544  72.2906647  51.4287040 101.6096738
  72.5303245  52.0605564 102.2875757  71.4475843  51.0775080 101.8962097
  73.4060362  34.1211642  90.2778543  72.5289829  34.0000443  89.9140790
  73.8818115  33.3297720  90.0257432  83.2733355  42.5764710 107.0476999
  82.3860134  42.2390632 107.1703398  83.8431906  41.8447741 107.2845764
  64.9262502  38.9088802 100.3720050  65.6133542  38.5950532  99.7841066
  64.7710631  39.8130166 100.0987302  69.7297224  33.7978998 104.8005074
  69.6455413  33.1904668 104.0655484  68.9079931  34.2888016 104.8014570
  76.8034509  47.2366162 104.0138242  76.7304680  48.0421134 104.5257547
  76.3611902  47.4358128 103.1886264  76.5924288  46.4737932  97.5241064
  75.8091810  47.0159612  97.6179288  77.2917033  46.9911912  97.9235305
  79.9020938  32.2832562 100.1675269  80.3989638  31.5302524  99.8476339
  79.1307920  32.3196878  99.6018478  87.7550696  37.9872927 101.8093561
  87.7440572  38.8697643 101.4387494  86.8868075  37.6344478 101.6148098
  79.2633192  47.1352996 106.1696401  79.9761164  47.7700461 106.0972302
  78.7723221  47.2316862 105.3536403  80.9850719  41.0404249  97.7413692
  80.0506998  41.1605711  97.5718397  81.1627388  40.1376716  97.4773702
  76.4855907  34.4249945  99.8946954  76.1153695  33.8720985 100.5827859
  76.9815000  33.8208078  99.3421954  84.3723270  36.8821568  98.2763727
  84.8383723  37.7149560  98.2024029  84.8230771  36.4166550  98.9808985
  74.3145106  44.8847440 106.9901972  75.0154565  45.5183923 107.1431366
  73.8440221  45.2262171 106.2297611  82.4399502  43.2265389  95.2749879
  82.7159345  43.1121984  96.1843753  81.5704000  42.8282874  95.2362052
  82.3439933  29.2502155 102.3154628  81.4303013  29.4806382 102.4836835
  82.7733035  29.3340599 103.1668660  82.1146392  37.4392047 104.8154522
  81.4617842  37.6867955 104.1606975  82.4926772  36.6256185 104.4816999
  79.0753566  47.4751740  98.9182692  79.2575960  46.6573396  99.3810445
  79.8986552  47.6919433  98.4807582  79.4095731  46.4019925  96.1797741
  79.9383497  45.8912380  95.5667903  79.6723951  46.0862456  97.0443274
  78.1633965  38.1811858 111.3020559  77.4874602  38.0805988 111.9722934
  78.9861599  38.0251072 111.7656556  69.9112824  44.4183795 103.9233074
  70.4966261  43.6727483 104.0560978  69.7137662  44.7287751 104.8069738
  72.7651479  47.4535042  98.9395517  72.0961854  47.9381170  98.4559557
  72.6264349  47.7004263  99.8538895  64.5030478  36.9889395 102.6437517
  64.5414578  36.4552986 103.4374636  63.9970771  36.4624600 102.0248495
  76.9056748  49.4878786 105.5378175  77.4575056  49.6510407 106.3027260
  77.2462941  50.0783223 104.8658200  71.8821241  31.8353935 106.1400060
  71.9462567  32.6968766 105.7277457  71.8188361  31.2227937 105.4072418
  71.3573513  33.9077068 109.7873094  71.9845552  33.5254145 110.4010618
  70.5001432  33.6891270 110.1528786  81.7567622  44.3140043 111.3926829
  82.3007526  44.9270001 110.8981784  81.1754467  44.8719622 111.9093842
  68.1339056  35.7153497  95.7191449  68.4292497  34.8064176  95.6658503
  67.2327092  35.6941237  95.3972451  80.0425135  47.4360761 102.5241857
  79.9176274  46.6350501 102.0152803  80.7004226  47.9306955 102.0355827
  71.6633303  33.7909494 101.7018997  70.9419889  34.4045461 101.5626471
  72.4526559  34.3267258 101.6235643  82.1060043  45.2369781 104.1521407
  81.1590379  45.1175132 104.0799734  82.4542816  44.3492279 104.2347669
  74.4659617  31.1263920 107.9759649  74.9894018  31.3726217 108.7385958
  74.2471950  31.9583955 107.5562787  69.8626898  33.3967595  95.8430774
  69.5339604  32.5164974  95.6605880  70.2166268  33.3415263  96.7307163
  79.1106477  45.0322497 100.3525759  78.9631439  44.1039205 100.5333330
  79.9359970  45.0542588  99.8682835  72.9768721  33.6840565  96.2106252
  73.3164793  34.2126486  95.4884860  73.4240841  34.0220971  96.9864818
  82.7140598  45.8551056 101.4390632  83.6387146  45.6493918 101.3015083
  82.5455902  45.6067457 102.3479974  75.6712162  32.0677615 105.6609320
  75.3308982  31.2685428 106.0630000  74.9651168  32.3679326 105.0886153
  76.3228633  29.1526928 104.1136643  77.1454703  28.6787406 103.9915533
  76.5666697  29.9317411 104.6135329  74.9636868  32.1815186  94.4099544
  75.6845230  32.5596439  93.9063261  74.3402172  32.9004063  94.5134522
  79.1067991  32.8860335  95.3457877  79.3231605  33.7684973  95.0446705
  78.6262058  32.4946549  94.6163519  73.8467212  35.8446048 101.9228621
  73.7011793  36.1586351 102.8152903  73.3692416  36.4630949 101.3699520
  75.7063595  32.8348596 101.9709511  75.6925164  31.9389690 101.6341809
  76.4236023  32.8419260 102.6047797  77.5589726  33.2685937 104.0162638
  77.3007504  34.1903007 104.0146969  77.0274766  32.8716371 104.7063102
  82.5035915  46.3736724  96.7952724  82.6772792  45.8083146  96.0426576
  82.9964806  47.1737619  96.6132214  68.3212874  38.3851393 104.8616283
  67.7766342  39.1611201 104.9936557  69.1992224  38.7322197 104.7035404
  75.1100491  31.7162977  97.2397081  75.2316402  30.7879623  97.4387969
  74.8202533  31.7301663  96.3275396  77.9791681  29.4017887 100.3763801
  78.0013378  29.4657220  99.4215780  78.3959740  28.5622396 100.5704307
  88.3575306  39.1373147  98.4143023  88.8006452  38.3880472  98.0162147
  87.4801816  39.1283283  98.0316755  83.4911087  45.6903488  93.8949622
  84.1861992  46.3110181  94.1136937  83.8334237  44.8398839  94.1702000
  69.1078896  37.5121289 107.7546439  68.3660632  37.6603924 108.3411070
  68.7871641  37.7729555 106.8913189  85.3902510  43.1403194  95.4236953
  85.9153834  43.4790466  94.6986273  85.3024863  42.2050209  95.2400087
  77.0522559  47.0537267 107.5526829  77.3609685  46.8086414 108.4249529
  77.8498041  47.2583906 107.0645700  77.0743171  49.2075177  99.7832206
  76.6348161  48.7151556 100.4765063  77.8251288  48.6648145  99.5424281
  69.5535510  45.3986718  99.7856834  70.3793530  45.0990490  99.4055478
  69.2029562  44.6294340 100.2346623  74.5217043  44.7513186 101.8554508
  73.8997052  44.0883891 101.5556735  75.1921910  44.7774318 101.1728155
  67.7544115  43.3173044 100.7445768  66.9176023  42.8895219 100.5629769
  67.7267760  43.5105488 101.6816559  74.5941571  33.2294974 111.4487014
  74.6429726  34.1057097 111.0664783  75.1364085  32.6872367 110.8758657
  85.0796416  43.7736097 110.7288151  84.2891960  43.7560236 110.1892650
  84.8429771  44.3124391 111.4837187  85.1994291  40.6228564 108.0420879
  85.2492296  40.4578571 108.9836402  85.0908215  39.7555823 107.6518760
  74.0830550  43.3017109  95.3312968  74.2318670  43.9852574  94.6779641
  74.8896993  43.2822199  95.8462424  82.4898054  36.6059492 109.3580186
  83.3907916  36.4665956 109.0664184  82.5646028  36.7713946 110.2978363
  76.8240859  33.9826346 108.2033372  75.9544168  34.2759912 107.9315961
  77.0600339  34.5666791 108.9240636  86.7012488  43.0425505 108.2862901
  86.4097296  43.4055486 109.1226362  86.0884619  42.3292513 108.1076233
  87.9008170  40.6078385 100.8065471  88.7355062  41.0468189 100.9703031
  88.0367299  40.1317038  99.9873717  84.9499676  38.1658120 106.7542959
  85.4253798  38.3585766 105.9461810  84.0265242  38.2217306 106.5086342
  71.8383183  39.3282287  96.3374037  71.5929225  38.4244617  96.5354247
  72.0079098  39.3299437  95.3953515  79.5279893  30.2005963 105.7198793
  80.0461837  30.9366990 105.3945281  79.1735026  30.5069957 106.5545552
  71.1078830  35.0610645  93.8360199  70.4148075  35.1354999  93.1800234
  70.8630582  34.2970988  94.3581715  79.7792487  26.6206246 101.2399689
  80.0594241  25.9529435 101.8660116  80.5643094  26.8135341 100.7274353
  77.5825956  45.7965240  92.8024716  77.0099923  46.4155427  92.3495187
  78.1558749  46.3464601  93.3364638  83.6501345  35.0423880 104.9871264
  84.6018768  35.1421977 105.0083488  83.4804796  34.2502148 105.4969349
  81.6715725  32.1279463 105.1730665  81.0765657  32.4084476 104.4777154
  81.3865422  32.6173364 105.9447406  80.8023215  46.0802390  93.9333298
  81.7353888  46.0147952  94.1366173  80.7146428  46.9158657  93.4747831
  83.4311232  45.3968260  90.8937245  83.3524863  45.0628124  91.7873003
  84.2520899  45.8890028  90.8928718  86.1289423  38.2630000 104.1013564
  86.0965743  37.3246000 104.2873248  86.7390047  38.3414036 103.3679389
  77.9672754  37.1326052  90.1440768  78.9131859  37.0032261  90.2129186
  77.5886999  36.3940714  90.6210196  86.2783912  35.0541043 104.1471847
  85.7622960  34.2699500 103.9601776  87.1623860  34.7259760 104.3118367
  83.9394639  28.7982059 100.1067660  83.7419460  28.4897147 100.9910992
  84.5494344  29.5243697 100.2365590  91.9465973  39.3246006 103.2419601
  92.6769361  39.0631294 103.8027304  91.3372918  38.5874728 103.2821669
  90.0281270  37.4653869 103.8394052  89.3014434  37.3309834 103.2310544
  89.6128557  37.7730698 104.6450770  77.8511447  41.1843799 111.6041425
  78.7714456  41.3622398 111.7981472  77.8161030  40.2399844 111.4521124
  76.1515671  35.0576029  90.0795653  75.2447127  34.7609142  90.1558367
  76.4291652  34.7605847  89.2129940  67.0693612  36.3782392 100.5294700
  66.7496396  35.5247700 100.2369074  66.5227040  36.5930970 101.2852667
  70.8473519  39.0944833 104.2464206  71.0659529  40.0261941 104.2652240
  71.2599293  38.7352808 105.0319010  77.7677737  29.6012919  96.2339895
  76.9578465  29.2560004  96.6095141  78.4562154  29.2920462  96.8227506
  79.6968285  28.6790965  97.8564191  80.2499324  29.0986419  98.5154214
  79.9338372  27.7526714  97.8987147  75.7201384  34.6678039 113.6366955
  75.6198111  35.6172396 113.5679046  75.5022926  34.3396278 112.7643025
  74.9214456  31.9162964  90.2207632  75.7833620  32.2417862  90.4803450
  75.1064800  31.1294460  89.7080698  66.9381872  39.9985304 102.4987821
  66.2445343  39.5839257 101.9857776  67.6854863  40.0405840 101.9021240
  83.0747092  30.7891491  97.3642855  82.4945761  31.4476295  96.9820908
  82.8083025  29.9668835  96.9530273  81.5250659  30.1896548  99.5664176
  82.0250437  30.3013083  98.7578495  82.1686267  29.8857601 100.2064984
  75.5832654  38.0975178 112.4532017  75.0999736  38.8975538 112.6595906
  75.6693593  38.1083123 111.4999461  68.8518614  39.9303558 100.3753836
  68.8289302  40.0291245  99.4235719  69.1619251  40.7768708 100.6971002
  71.5105992  41.9879713 104.4900451  72.4649245  41.9563655 104.4230382
  71.3118516  41.5270336 105.3050676  72.1005374  40.5580829 107.0571248
  72.9198263  41.0524907 107.0806086  72.3742182  39.6412797 107.0288816
  81.8571970  32.9491581  96.4199204  80.9697825  33.2341232  96.2019399
  82.2725959  32.7885344  95.5726481  85.2086506  32.9738102 100.1353543
  85.9846897  33.4634554 100.4078160  84.4834641  33.3996156 100.5925412
  87.6459065  33.6865721 101.1927484  88.2403556  33.4461457 100.4820792
  87.7185649  32.9672852 101.8201020  69.8656221  47.5299332 101.5070648
  69.7310689  46.7699733 100.9408646  69.4488283  48.2540232 101.0399437
  81.0015184  42.7136256  90.5147224  81.7051034  42.9186258  91.1304879
  80.2777833  43.2813018  90.7796307  81.8312994  38.4646117  96.6349494
  81.7748195  38.9214668  95.7957126  82.3841336  37.7036801  96.4572337
  85.6417800  34.2535849  97.4599613  85.3854734  33.8532484  98.2907821
  85.0170668  34.9679643  97.3349753  89.9530138  36.9931922  99.9670905
  89.3929696  37.0625111 100.7402467  89.3473641  36.8172907  99.2470401
  73.0225347  48.4268649 101.7189091  72.9057731  49.3714082 101.6167781
  72.2017793  48.1242211 102.1074890  82.9101881  43.1518785  92.5645684
  83.7447485  42.7199983  92.3823159  82.7486224  42.9800799  93.4922578
  82.5647773  39.6550898  93.9302023  82.5096577  39.4895170  92.9890467
  81.9393829  40.3626931  94.0864213  67.3540288  34.8918963 107.7563445
  67.9999152  34.3817916 108.2450670  67.1457439  35.6287644 108.3306871
  79.8793681  41.9599810 113.2555586  80.7484840  42.1340462 112.8942221
  79.4000432  42.7794227 113.1331315  75.8743899  29.1559007  93.5087341
  75.8622569  30.1000847  93.6655612  76.7667321  28.9729153  93.2146803
  74.0479861  49.0796911 104.9345020  74.9507107  49.1120521 105.2511514
  73.8217231  48.1497362 104.9491355  75.8033463  47.8327898 101.5955098
  74.8529094  47.8329759 101.4819470  76.1065949  47.0860632 101.0791133
  79.6896018  25.7501784  97.7633278  78.9228414  25.1960270  97.9089961
  80.1006723  25.8223653  98.6247430  71.6937779  32.0386580 111.8538460
  72.5569241  31.6823384 112.0641784  71.1203190  31.7000474 112.5413864
  91.5386156  53.6688436 102.6600861  92.1764566  53.5495183 101.9564201
  91.4206999  54.6169280 102.7188813  88.3475863  53.6215864 102.5962385
  88.0094374  53.5056929 101.7082920  89.2165631  53.2207029 102.5763391
  84.2062678  55.4751340  98.5859276  83.6427543  55.3841277  97.8175564
  84.0915073  54.6551245  99.0661769  88.8295646  54.7750716 108.5548591
  88.8184286  54.3803514 107.6829094  88.9916285  54.0416788 109.1482362
  81.7527110  56.9702532 101.4243497  82.5448402  56.6293357 101.0089796
  81.9923760  57.0797507 102.3445650  89.7862237  59.1422308  93.8973741
  89.1350217  59.7276389  93.5107755  90.5806600  59.6728503  93.9568779
  83.7117864  56.2311445  94.2960875  84.4848740  55.6840432  94.1573751
  84.0643263  57.0955695  94.5075337  85.5502907  57.5587828 107.5027775
  85.2592773  58.4633458 107.3874441  86.1859891  57.6004355 108.2171844
  86.4759114  54.9364676 104.0929134  87.0722686  54.7120698 103.3786097
  86.5334085  54.1949422 104.6954582  86.0484142  52.3904111  91.9279325
  86.3009663  51.8685633  91.1662788  85.1108701  52.2270257  92.0306009
  91.0927425  51.3939890  99.7354069  91.8790514  50.9759313  99.3844486
  91.3566129  52.2985982  99.9035717  91.2637502  56.8312740  94.4342725
  90.6283335  56.9047367  95.1463630  90.9334908  57.4206339  93.7561805
  96.4935852  51.3315123 100.6387047  97.2261024  50.7614340 100.8724877
  95.7375208  50.9436723 101.0793553  85.7680431  54.2932217  94.1303700
  85.6516689  53.6177121  94.7984785  85.8782691  53.8064591  93.3135853
  88.1111972  53.7542364  97.8350390  87.7470179  53.2272985  98.5463311
  88.9679087  53.3640834  97.6616875  94.0161272  45.0436697 105.0981656
  93.6844597  45.9132108 104.8742871  93.4206886  44.7272981 105.7775686
  87.7517459  48.7832264  92.8311738  87.9191861  49.6512501  93.1982209
  87.5614628  48.9459546  91.9073027  90.5092792  57.2449243 104.4977568
  90.2093515  58.1474282 104.3893376  90.1643851  56.9781426 105.3498721
  83.9605273  53.6963040 100.5314273  83.0355770  53.5639254 100.7391965
  84.2089686  54.4757259 101.0284215  93.9089936  49.7631783 102.1775006
  93.0006813  49.6947192 101.8833767  93.8577531  50.2403728 103.0056831
  87.7306679  51.2389922  93.8158405  87.6106305  51.6846972  94.6543885
  87.0359268  51.5875239  93.2571943  81.3214084  53.3396313 101.3658062
  81.4506465  53.5930792 102.2797474  80.6411536  53.9324021 101.0462717
  85.4913572  64.0093563  97.4648536  85.4137601  64.9601389  97.5437017
  84.8875215  63.6639436  98.1223462  87.9830801  51.1821429 110.1209903
  87.2064135  51.7415349 110.1112768  88.6221364  51.6678212 110.6424773
  95.7751582  47.9648222 103.9552880  95.1325962  48.2580755 103.3092674
  95.2706510  47.8501142 104.7606076  93.4291746  51.7111395  94.6438739
  94.3409602  51.9438782  94.4686436  92.9201393  52.2948439  94.0813818
  86.2377174  53.9906882 109.6827870  86.9791858  54.5291926 109.4062694
  85.5314159  54.6173171 109.8399422  91.7132513  56.1336023 108.2800032
  92.1215869  55.6918433 107.5354664  90.9909775  55.5588650 108.5334224
  88.0663583  51.0708629 105.6533588  88.9124779  51.4948043 105.7968237
  88.0062221  50.4142254 106.3472152  92.0361328  56.6937213 102.0352320
  91.4070190  56.8582927 101.3328388  91.6486990  57.1078823 102.8063284
  95.9150560  57.6291651  99.3896684  95.2301598  58.0090553  98.8393717
  95.9994409  58.2386978 100.1228632  91.2163029  48.7312998 107.3114762
  90.9723961  49.4855058 106.7749038  91.4922959  49.1098345 108.1462009
  93.1701491  55.2751610 105.9892028  93.3818387  55.9183370 105.3126409
  93.1231240  54.4413927 105.5213958  90.7727720  47.8869431 102.8928600
  89.9112199  48.1850684 103.1845337  90.7990155  48.1039830 101.9609632
  87.5889290  56.4311621  99.3002405  88.0527635  56.7099324  98.5107028
  87.3246088  55.5295066  99.1175496  84.4813371  55.9783103 102.2382169
  85.0514728  56.4070371 101.5999653  85.0721483  55.6965688 102.9366354
  86.5258176  52.5534774  96.1091971  87.2282219  53.0055817  96.5765897
  86.1938804  51.9118593  96.7371864  84.9738537  51.1446530 110.4843180
  84.3437198  51.8262811 110.7178577  84.8674625  51.0329612 109.5396318
  80.2683510  50.8118326 101.4109104  79.4782564  51.0675855 100.9349215
  80.7594757  51.6266664 101.5161145  94.2847319  58.1523566 104.1614385
  95.1064763  57.7503753 103.8797067  94.2809722  58.0491800 105.1130501
  82.2198255  51.1762906  98.3692581  81.4229418  51.2881600  98.8876077
  81.9923847  51.5149558  97.5033471  88.0503923  57.7007609 106.3175096
  88.1148355  58.1628016 107.1533267  87.3414847  57.0704974 106.4457405
  78.5521213  51.0648817 103.8424095  78.8029251  51.9495827 104.1081671
  79.0880761  50.8853418 103.0699187 102.3753312  54.4962314 100.5099356
 101.6217021  53.9269712 100.3543361 102.5100854  54.4624979 101.4569991
  87.7651940  59.3675716  96.1854076  87.6297615  60.2127252  96.6138924
  88.3061753  59.5694994  95.4220010  84.2519280  45.4467296 112.8468431
  83.8586226  44.8933495 113.5216075  85.0685420  45.7577875 113.2374949
  81.2181338  56.8851154  96.7582001  81.7305858  57.6794405  96.9087566
  81.8704051  56.1877445  96.6915602  83.0276223  60.0016911  98.8404754
  83.2042851  60.9234875  98.6525738  83.8233056  59.6875330  99.2699134
  87.1687241  46.8625175 110.4388688  87.9096954  47.4632328 110.3593150
  87.4005164  46.1202813 109.8806730  82.3128579  52.0481543 108.7166917
  82.1982094  51.1466800 109.0174016  81.4573097  52.2945239 108.3651734
  89.3920417  59.9899283 110.3154418  88.9484271  59.2035661 109.9975322
  90.0537630  60.1778433 109.6498309  84.1507538  61.5195084 104.8415096
  84.7014963  61.3912148 104.0692090  83.3119014  61.8189973 104.4909989
  91.4901655  60.2702083 108.3435819  91.4720130  61.0910964 107.8516088
  92.4121575  60.1456158 108.5685960  87.9474709  57.7846212 109.1859328
  88.4803046  57.0234500 108.9558636  87.4188790  57.4919864 109.9283482
  91.1144404  42.8906278 104.7152969  90.7708673  43.7807920 104.6392080
  91.4823367  42.7007936 103.8522554  79.1830255  55.2139809  97.5341571
  80.0205477  55.6236817  97.3175279  79.3608522  54.2739251  97.5041765
  91.0794687  52.8814889  93.2225404  90.5641310  53.6519494  93.4613792
  90.8071995  52.2080026  93.8458466  88.6641798  47.7264590  98.2810643
  87.8083394  47.3371441  98.1016282  89.0768750  47.8056551  97.4210428
  90.1940944  45.2610933 102.6802203  89.6905740  45.2241069 101.8670008
  90.4871551  46.1703676 102.7398859  86.4383830  45.3449663 101.6868384
  87.3036827  45.1492472 101.3274274  86.5061339  45.1160015 102.6137741
  96.0528961  55.6347244  95.1578578  95.2758404  55.2958404  94.7133740
  96.7320442  55.6399867  94.4833543  90.8680990  50.7541981  95.0485186
  90.5631125  51.0688131  95.8995329  91.8211432  50.8323401  95.0912519
  89.3127422  56.9132205  96.6978140  88.7848783  56.1784964  96.3851377
  88.8114924  57.6906881  96.4518108  94.2920268  55.1081225 101.8145186
  93.6343942  55.7980487 101.9025315  95.0960667  55.4977657 102.1579172
  84.0446149  47.5751871  99.0584751  84.6189901  47.3527053  98.3257944
  84.6317132  47.6440566  99.8113352  93.1025727  53.4625598  99.8649128
  93.6157608  54.0955590 100.3670837  93.7526950  52.8626793  99.4992488
  84.3715736  49.6056332  93.0780636  83.5353049  49.9431019  93.3989911
  84.2320506  49.4705312  92.1407773  86.3468817  44.4493120  97.7859821
  85.6933229  44.1342137  97.1616435  86.3049291  43.8268860  98.5119643
  87.4580022  54.7312415  89.7013113  86.5507084  54.5001668  89.9004262
  87.9551054  53.9350034  89.8887094  90.3648101  63.4409922  92.6209799
  89.6909800  63.7441619  93.2294757  90.7513923  64.2439003  92.2715256
  89.5806557  50.9375054 102.1107468  88.6629119  51.1590001 101.9529156
  89.9966701  51.0121364 101.2519176  90.3641605  52.3366469  97.2410148
  91.1113424  52.8487866  96.9317270  90.6333195  52.0150522  98.1014542
  88.6368255  54.8325010  94.2237103  87.7279475  54.5484043  94.3209572
  88.6663339  55.2524088  93.3640410  93.8687523  58.4431599  97.9928270
  93.4149850  57.6022509  98.0493461  93.2381490  59.0792998  98.3303050
  92.8120442  49.3723585  99.2228938  92.0743199  48.8600972  99.5539180
  93.0647216  48.9323967  98.4112215  92.3120462  60.2808096  98.9278088
  92.6043436  60.8413153  98.2090454  92.8219083  60.5736657  99.6831248
  92.9132070  42.1499837  99.8170707  93.2190946  41.2897201  99.5296622
  93.6384674  42.7417458  99.6169701  79.2056426  52.5530524  98.2052305
  79.0080826  51.9599885  97.4803371  78.6503090  52.2482734  98.9228244
  87.1853149  52.4453631 100.3246898  87.2401759  51.4927467 100.2489375
  86.3744351  52.6013070 100.8088196  88.3344343  56.3733754  91.5625181
  87.8963773  55.6569613  91.1030819  89.0754784  56.6009868  91.0010273
  85.1245509  51.0630690  98.0837277  84.3113375  51.3624861  98.4902469
  85.6204504  50.6686379  98.8011759  87.2754087  61.0588447 100.0171542
  87.2330266  61.2849293  99.0880074  88.1916786  60.8251822 100.1657343
  90.7219721  51.5272515 106.9152171  91.0769109  51.7543988 107.7746637
  91.3691852  51.8590892 106.2929426  96.4517458  54.6490951  97.6201500
  96.3135357  54.8392547  96.6922689  96.0953677  55.4110333  98.0769551
  84.6159584  48.6349046 103.6998512  85.2558963  48.4937805 103.0021475
  83.7837115  48.3483559 103.3237114  96.4786838  56.7167478 102.6312771
  96.9123344  56.6242767 103.4795825  97.1918418  56.6924978 101.9932787
  85.3919888  57.9351476  99.8133504  86.1860486  57.4401796  99.6116079
  84.6811580  57.4069339  99.4501210  90.2114732  60.3169572 104.1645872
  90.2651755  60.8860508 104.9323588  89.3429514  60.4871457 103.7999909
  81.7002651  52.0794558  95.8893257  80.7700240  52.0179013  96.1063219
  81.7960123  51.5570511  95.0929898  81.6188201  48.6049371  98.4771499
  81.8795018  49.5194704  98.3680659  82.4405373  48.1373813  98.6268112
  83.0913126  50.0187128 105.6470323  83.7636179  49.8104490 104.9982972
  82.2642912  49.8209214 105.2075556  97.3402387  56.7591178 105.1645657
  97.5338277  57.6636989 105.4104932  97.2403005  56.2998597 105.9984242
  88.9938698  46.6449069 107.6635984  88.3466613  47.3439019 107.5700460
  89.7639713  47.0785213 108.0312232  92.4017496  56.9097921 110.7386537
  92.2503002  56.6808473 109.8216621  92.3922175  57.8668522 110.7517882
  89.1702832  54.4829834 105.7232804  90.0994892  54.6340993 105.5501771
  88.7493862  54.5713855 104.8681450  87.9691164  58.5080498 103.4931341
  87.8302250  58.1399283 104.3657280  87.1805760  59.0228138 103.3215299
  88.5639316  63.6089595  94.8356878  88.7391072  63.1377638  95.6502501
  87.8772104  64.2355361  95.0638139  89.5196379  57.8862101 100.8820179
  89.1846212  57.8462871 101.7777829  89.0200325  57.2206817 100.4090589
  83.4940623  53.2929731 106.4072760  83.3560421  52.5609970 107.0084299
  84.4045547  53.2038631 106.1256948  92.4555571  55.2318135  91.1557239
  91.8384741  54.5064963  91.0590292  91.9872059  55.9927496  90.8124313
  86.1222924  53.0049690 105.8956440  86.8322542  52.3642882 105.8543058
  86.0792232  53.2562585 106.8182621  94.1109702  59.9417044 108.8163019
  94.0522249  59.2576264 108.1493602  94.5129221  60.6836034 108.3643645
  84.8351858  49.9914908 107.7152079  84.2989215  49.5405647 108.3673676
  84.2468566  50.1260817 106.9722544  83.1300401  66.7578957 101.6096738
  83.3696999  67.3897482 102.2875757  82.2869598  66.4066997 101.8962097
  84.2454117  49.4503560  90.2778543  83.3683583  49.3292360  89.9140790
  84.7211870  48.6589638  90.0257432  94.1127110  57.9056628 107.0476999
  93.2253888  57.5682549 107.1703398  94.6825661  57.1739659 107.2845764
  75.7656257  54.2380719 100.3720050  76.4527297  53.9242449  99.7841066
  75.6104386  55.1422084 100.0987302  80.5690979  49.1270916 104.8005074
  80.4849168  48.5196585 104.0655484  79.7473685  49.6179934 104.8014570
  87.6428263  62.5658080 104.0138242  87.5698435  63.3713051 104.5257547
  87.2005656  62.7650046 103.1886264  87.4318043  61.8029850  97.5241064
  86.6485565  62.3451530  97.6179288  88.1310788  62.3203830  97.9235305
  90.7414693  47.6124479 100.1675269  91.2383392  46.8594442  99.8476339
  89.9701674  47.6488796  99.6018478  98.5944450  53.3164845 101.8093561
  98.5834327  54.1989560 101.4387494  97.7261830  52.9636396 101.6148098
  90.1026947  62.4644914 106.1696401  90.8154919  63.0992379 106.0972302
  89.6116975  62.5608780 105.3536403  91.8244474  56.3696167  97.7413692
  90.8900752  56.4897629  97.5718397  92.0021142  55.4668633  97.4773702
  87.3249662  49.7541862  99.8946954  86.9547449  49.2012903 100.5827859
  87.8208754  49.1499996  99.3421954  95.2117025  52.2113486  98.2763727
  95.6777477  53.0441477  98.2024029  95.6624525  51.7458467  98.9808985
  85.1538860  60.2139357 106.9901972  85.8548320  60.8475840 107.1431366
  84.6833975  60.5554089 106.2297611  93.2793256  58.5557307  95.2749879
  93.5553100  58.4413902  96.1843753  92.4097755  58.1574792  95.2362052
  93.1833688  44.5794073 102.3154628  92.2696767  44.8098300 102.4836835
  93.6126789  44.6632517 103.1668660  92.9540146  52.7683965 104.8154522
  92.3011596  53.0159872 104.1606975  93.3320526  51.9548103 104.4816999
  89.9147320  62.8043658  98.9182692  90.0969715  61.9865314  99.3810445
  90.7380306  63.0211350  98.4807582  90.2489486  61.7311843  96.1797741
  90.7777252  61.2204298  95.5667903  90.5117705  61.4154373  97.0443274
  89.0027719  53.5103776 111.3020559  88.3268356  53.4097905 111.9722934
  89.8255353  53.3542990 111.7656556  80.7506578  59.7475712 103.9233074
  81.3360015  59.0019400 104.0560978  80.5531417  60.0579669 104.8069738
  83.6045233  62.7826960  98.9395517  82.9355609  63.2673087  98.4559557
  83.4658103  63.0296180  99.8538895  75.3424233  52.3181313 102.6437517
  75.3808332  51.7844903 103.4374636  74.8364526  51.7916518 102.0248495
  87.7450502  64.8170703 105.5378175  88.2968810  64.9802325 106.3027260
  88.0856695  65.4075141 104.8658200  82.7214995  47.1645853 106.1400060
  82.7856322  48.0260684 105.7277457  82.6582116  46.5519855 105.4072418
  82.1967268  49.2368986 109.7873094  82.8239307  48.8546063 110.4010618
  81.3395187  49.0183188 110.1528786  92.5961376  59.6431961 111.3926829
  93.1401280  60.2561919 110.8981784  92.0148221  60.2011539 111.9093842
  78.9732811  51.0445415  95.7191449  79.2686252  50.1356093  95.6658503
  78.0720846  51.0233154  95.3972451  90.8818889  62.7652679 102.5241857
  90.7570029  61.9642419 102.0152803  91.5397980  63.2598872 102.0355827
  82.5027058  49.1201411 101.7018997  81.7813643  49.7337379 101.5626471
  83.2920313  49.6559176 101.6235643  92.9453798  60.5661699 104.1521407
  91.9984133  60.4467050 104.0799734  93.2936571  59.6784197 104.2347669
  85.3053371  46.4555838 107.9759649  85.8287773  46.7018134 108.7385958
  85.0865704  47.2875873 107.5562787  80.7020652  48.7259512  95.8430774
  80.3733358  47.8456891  95.6605880  81.0560023  48.6707181  96.7307163
  89.9500231  60.3614415 100.3525759  89.8025193  59.4331123 100.5333330
  90.7753725  60.3834506  99.8682835  83.8162475  49.0132482  96.2106252
  84.1558548  49.5418403  95.4884860  84.2634596  49.3512888  96.9864818
  93.5534353  61.1842974 101.4390632  94.4780900  60.9785835 101.3015083
  93.3849656  60.9359375 102.3479974  86.5105916  47.3969533 105.6609320
  86.1702736  46.5977346 106.0630000  85.8044922  47.6971244 105.0886153
  87.1622388  44.4818845 104.1136643  87.9848457  44.0079324 103.9915533
  87.4060451  45.2609329 104.6135329  85.8030622  47.5107104  94.4099544
  86.5238985  47.8888357  93.9063261  85.1795927  48.2295981  94.5134522
  89.9461745  48.2152253  95.3457877  90.1625360  49.0976891  95.0446705
  89.4655812  47.8238466  94.6163519  84.6860967  51.1737966 101.9228621
  84.5405547  51.4878269 102.8152903  84.2086170  51.7922866 101.3699520
  86.5457350  48.1640514 101.9709511  86.5318918  47.2681607 101.6341809
  87.2629778  48.1711178 102.6047797  88.3983480  48.5977854 104.0162638
  88.1401258  49.5194925 104.0146969  87.8668521  48.2008289 104.7063102
  93.3429669  61.7028641  96.7952724  93.5166547  61.1375064  96.0426576
  93.8358560  62.5029536  96.6132214  79.1606629  53.7143310 104.8616283
  78.6160097  54.4903118 104.9936557  80.0385979  54.0614115 104.7035404
  85.9494246  47.0454894  97.2397081  86.0710157  46.1171540  97.4387969
  85.6596288  47.0593580  96.3275396  88.8185436  44.7309805 100.3763801
  88.8407133  44.7949138  99.4215780  89.2353495  43.8914313 100.5704307
  99.1969060  54.4665064  98.4143023  99.6400206  53.7172389  98.0162147
  98.3195571  54.4575201  98.0316755  94.3304842  61.0195406  93.8949622
  95.0255746  61.6402098  94.1136937  94.6727992  60.1690757  94.1702000
  79.9472651  52.8413207 107.7546439  79.2054387  52.9895842 108.3411070
  79.6265395  53.1021472 106.8913189  96.2296265  58.4695111  95.4236953
  96.7547589  58.8082384  94.6986273  96.1418617  57.5342127  95.2400087
  87.8916313  62.3829185 107.5526829  88.2003440  62.1378332 108.4249529
  88.6891795  62.5875823 107.0645700  87.9136925  64.5367095  99.7832206
  87.4741916  64.0443473 100.4765063  88.6645042  63.9940062  99.5424281
  80.3929264  60.7278635  99.7856834  81.2187284  60.4282407  99.4055478
  80.0423316  59.9586258 100.2346623  85.3610798  60.0805104 101.8554508
  84.7390807  59.4175809 101.5556735  86.0315664  60.1066236 101.1728155
  78.5937869  58.6464962 100.7445768  77.7569778  58.2187136 100.5629769
  78.5661515  58.8397405 101.6816559  85.4335325  48.5586892 111.4487014
  85.4823481  49.4349014 111.0664783  85.9757839  48.0164285 110.8758657
  95.9190171  59.1028015 110.7288151  95.1285714  59.0852154 110.1892650
  95.6823525  59.6416309 111.4837187  96.0388046  55.9520481 108.0420879
  96.0886051  55.7870489 108.9836402  95.9301969  55.0847740 107.6518760
  84.9224304  58.6309027  95.3312968  85.0712425  59.3144491  94.6779641
  85.7290748  58.6114117  95.8462424  93.3291808  51.9351409 109.3580186
  94.2301671  51.7957874 109.0664184  93.4039783  52.1005864 110.2978363
  87.6634613  49.3118264 108.2033372  86.7937923  49.6051830 107.9315961
  87.8994094  49.8958709 108.9240636  97.5406243  58.3717423 108.2862901
  97.2491051  58.7347403 109.1226362  96.9278374  57.6584431 108.1076233
  98.7401925  55.9370303 100.8065471  99.5748816  56.3760107 100.9703031
  98.8761054  55.4608956  99.9873717  95.7893431  53.4950037 106.7542959
  96.2647552  53.6877684 105.9461810  94.8658996  53.5509223 106.5086342
  82.6776937  54.6574205  96.3374037  82.4322979  53.7536535  96.5354247
  82.8472852  54.6591355  95.3953515  90.3673647  45.5297881 105.7198793
  90.8855591  46.2658908 105.3945281  90.0128780  45.8361874 106.5545552
  81.9472585  50.3902562  93.8360199  81.2541830  50.4646917  93.1800234
  81.7024337  49.6262906  94.3581715  90.6186241  41.9498164 101.2399689
  90.8987995  41.2821353 101.8660116  91.4036848  42.1427259 100.7274353
  88.4219710  61.1257157  92.8024716  87.8493677  61.7447345  92.3495187
  88.9952504  61.6756519  93.3364638  94.4895100  50.3715798 104.9871264
  95.4412523  50.4713895 105.0083488  94.3198550  49.5794066 105.4969349
  92.5109479  47.4571381 105.1730665  91.9159411  47.7376393 104.4777154
  92.2259176  47.9465282 105.9447406  91.6416970  61.4094308  93.9333298
  92.5747643  61.3439869  94.1366173  91.5540183  62.2450574  93.4747831
  94.2704986  60.7260178  90.8937245  94.1918618  60.3920041  91.7873003
  95.0914653  61.2181946  90.8928718  96.9683178  53.5921917 104.1013564
  96.9359498  52.6537918 104.2873248  97.5783801  53.6705954 103.3679389
  88.8066508  52.4617970  90.1440768  89.7525613  52.3324178  90.2129186
  88.4280753  51.7232632  90.6210196  97.1177666  50.3832961 104.1471847
  96.6016715  49.5991417 103.9601776  98.0017615  50.0551677 104.3118367
  94.7788393  44.1273976 100.1067660  94.5813214  43.8189064 100.9910992
  95.3888099  44.8535615 100.2365590 102.7859727  54.6537924 103.2419601
 103.5163116  54.3923212 103.8027304 102.1766673  53.9166646 103.2821669
 100.8675025  52.7945787 103.8394052 100.1408188  52.6601752 103.2310544
 100.4522311  53.1022615 104.6450770  88.6905201  56.5135716 111.6041425
  89.6108210  56.6914315 111.7981472  88.6554784  55.5691762 111.4521124
  86.9909426  50.3867947  90.0795653  86.0840881  50.0901059  90.1558367
  87.2685407  50.0897765  89.2129940  77.9087366  51.7074310 100.5294700
  77.5890150  50.8539618 100.2369074  77.3620794  51.9222888 101.2852667
  81.6867274  54.4236751 104.2464206  81.9053283  55.3553859 104.2652240
  82.0993047  54.0644725 105.0319010  88.6071491  44.9304836  96.2339895
  87.7972220  44.5851921  96.6095141  89.2955908  44.6212380  96.8227506
  90.5362040  44.0082883  97.8564191  91.0893078  44.4278337  98.5154214
  90.7732126  43.0818631  97.8987147  86.5595139  49.9969957 113.6366955
  86.4591866  50.9464314 113.5679046  86.3416681  49.6688196 112.7643025
  85.7608210  47.2454882  90.2207632  86.6227374  47.5709780  90.4803450
  85.9458554  46.4586378  89.7080698  77.7775626  55.3277221 102.4987821
  77.0839097  54.9131174 101.9857776  78.5248617  55.3697758 101.9021240
  93.9140847  46.1183408  97.3642855  93.3339516  46.7768212  96.9820908
  93.6476779  45.2960753  96.9530273  92.3644413  45.5188466  99.5664176
  92.8644191  45.6305000  98.7578495  93.0080021  45.2149519 100.2064984
  86.4226409  53.4267096 112.4532017  85.9393491  54.2267456 112.6595906
  86.5087348  53.4375040 111.4999461  79.6912369  55.2595475 100.3753836
  79.6683057  55.3583163  99.4235719  80.0013005  56.1060626 100.6971002
  82.3499746  57.3171630 104.4900451  83.3043000  57.2855573 104.4230382
  82.1512270  56.8562254 105.3050676  82.9399129  55.8872746 107.0571248
  83.7592018  56.3816825 107.0806086  83.2135936  54.9704714 107.0288816
  92.6965725  48.2783499  96.4199204  91.8091580  48.5633149  96.2019399
  93.1119714  48.1177262  95.5726481  96.0480261  48.3030020 100.1353543
  96.8240651  48.7926472 100.4078160  95.3228395  48.7288074 100.5925412
  98.4852820  49.0157639 101.1927484  99.0797310  48.7753375 100.4820792
  98.5579403  48.2964769 101.8201020  80.7049975  62.8591250 101.5070648
  80.5704443  62.0991651 100.9408646  80.2882037  63.5832150 101.0399437
  91.8408938  58.0428173  90.5147224  92.5444788  58.2478176  91.1304879
  91.1171587  58.6104935  90.7796307  92.6706749  53.7938035  96.6349494
  92.6141950  54.2506586  95.7957126  93.2235091  53.0328719  96.4572337
  96.4811554  49.5827766  97.4599613  96.2248489  49.1824402  98.2907821
  95.8564422  50.2971560  97.3349753 100.7923892  52.3223840  99.9670905
 100.2323450  52.3917029 100.7402467 100.1867396  52.1464824  99.2470401
  83.8619101  63.7560567 101.7189091  83.7451485  64.7005999 101.6167781
  83.0411547  63.4534128 102.1074890  93.7495636  58.4810702  92.5645684
  94.5841240  58.0491901  92.3823159  93.5879979  58.3092716  93.4922578
  93.4041528  54.9842816  93.9302023  93.3490332  54.8187087  92.9890467
  92.7787583  55.6918849  94.0864213  78.1934043  50.2210880 107.7563445
  78.8392906  49.7109834 108.2450670  77.9851194  50.9579562 108.3306871
  90.7187435  57.2891728 113.2555586  91.5878595  57.4632380 112.8942221
  90.2394186  58.1086144 113.1331315  86.7137653  44.4850925  93.5087341
  86.7016323  45.4292765  93.6655612  87.6061075  44.3021070  93.2146803
  84.8873615  64.4088829 104.9345020  85.7900862  64.4412439 105.2511514
  84.6610985  63.4789280 104.9491355  86.6427217  63.1619815 101.5955098
  85.6922848  63.1621677 101.4819470  86.9459703  62.4152550 101.0791133
  90.5289773  41.0793701  97.7633278  89.7622169  40.5252188  97.9089961
  90.9400478  41.1515570  98.6247430  82.5331534  47.3678497 111.8538460
  83.3962995  47.0115302 112.0641784  81.9596944  47.0292392 112.5413864
 102.3779911  68.9980354 102.6600861 103.0158321  68.8787101 101.9564201
 102.2600754  69.9461198 102.7188813  99.1869617  68.9507782 102.5962385
  98.8488129  68.8348846 101.7082920 100.0559385  68.5498947 102.5763391
  95.0456433  70.8043258  98.5859276  94.4821298  70.7133195  97.8175564
  94.9308828  69.9843163  99.0661769  99.6689400  70.1042633 108.5548591
  99.6578041  69.7095432 107.6829094  99.8310039  69.3708706 109.1482362
  92.5920865  72.2994450 101.4243497  93.3842157  71.9585274 101.0089796
  92.8317515  72.4089425 102.3445650 100.6255991  74.4714226  93.8973741
  99.9743971  75.0568306  93.5107755 101.4200354  75.0020421  93.9568779
  94.5511619  71.5603363  94.2960875  95.3242495  71.0132350  94.1573751
  94.9037017  72.4247612  94.5075337  96.3896661  72.8879745 107.5027775
  96.0986527  73.7925376 107.3874441  97.0253646  72.9296273 108.2171844
  97.3152868  70.2656594 104.0929134  97.9116440  70.0412616 103.3786097
  97.3727840  69.5241339 104.6954582  96.8877896  67.7196029  91.9279325
  97.1403417  67.1977550  91.1662788  95.9502455  67.5562175  92.0306009
 101.9321179  66.7231807  99.7354069 102.7184268  66.3051231  99.3844486
 102.1959884  67.6277900  99.9035717 102.1031257  72.1604658  94.4342725
 101.4677090  72.2339284  95.1463630 101.7728663  72.7498257  93.7561805
 107.3329606  66.6607041 100.6387047 108.0654778  66.0906257 100.8724877
 106.5768962  66.2728641 101.0793553  96.6074185  69.6224135  94.1303700
  96.4910443  68.9469038  94.7984785  96.7176445  69.1356509  93.3135853
  98.9505726  69.0834282  97.8350390  98.5863933  68.5564903  98.5463311
  99.8072842  68.6932751  97.6616875 104.8555027  60.3728615 105.0981656
 104.5238351  61.2424026 104.8742871 104.2600640  60.0564899 105.7775686
  98.5911213  64.1124182  92.8311738  98.7585615  64.9804418  93.1982209
  98.4008382  64.2751464  91.9073027 101.3486546  72.5741161 104.4977568
 101.0487269  73.4766200 104.3893376 101.0037606  72.3073344 105.3498721
  94.7999028  69.0254958 100.5314273  93.8749524  68.8931172 100.7391965
  95.0483441  69.8049177 101.0284215 104.7483690  65.0923701 102.1775006
 103.8400567  65.0239109 101.8833767 104.6971286  65.5695646 103.0056831
  98.5700434  66.5681839  93.8158405  98.4500059  67.0138890  94.6543885
  97.8753022  66.9167157  93.2571943  92.1607839  68.6688231 101.3658062
  92.2900220  68.9222710 102.2797474  91.4805290  69.2615939 101.0462717
  96.3307326  79.3385481  97.4648536  96.2531356  80.2893306  97.5437017
  95.7268970  78.9931354  98.1223462  98.8224556  66.5113347 110.1209903
  98.0457890  67.0707267 110.1112768  99.4615119  66.9970130 110.6424773
 106.6145336  63.2940139 103.9552880 105.9719717  63.5872672 103.3092674
 106.1100265  63.1793060 104.7606076 104.2685500  67.0403313  94.6438739
 105.1803356  67.2730699  94.4686436 103.7595147  67.6240357  94.0813818
  97.0770928  69.3198800 109.6827870  97.8185612  69.8583844 109.4062694
  96.3707914  69.9465089 109.8399422 102.5526268  71.4627940 108.2800032
 102.9609624  71.0210351 107.5354664 101.8303529  70.8880568 108.5334224
  98.9057338  66.4000547 105.6533588  99.7518533  66.8239961 105.7968237
  98.8455975  65.7434171 106.3472152 102.8755082  72.0229131 102.0352320
 102.2463945  72.1874845 101.3328388 102.4880744  72.4370741 102.8063284
 106.7544314  72.9583569  99.3896684 106.0695352  73.3382470  98.8393717
 106.8388164  73.5678895 100.1228632 102.0556783  64.0604915 107.3114762
 101.8117715  64.8146976 106.7749038 102.3316714  64.4390263 108.1462009
 104.0095246  70.6043528 105.9892028 104.2212141  71.2475288 105.3126409
 103.9624994  69.7705844 105.5213958 101.6121475  63.2161348 102.8928600
 100.7505954  63.5142602 103.1845337 101.6383910  63.4331747 101.9609632
  98.4283044  71.7603539  99.3002405  98.8921390  72.0391242  98.5107028
  98.1639842  70.8586984  99.1175496  95.3207125  71.3075021 102.2382169
  95.8908482  71.7362289 101.5999653  95.9115237  71.0257605 102.9366354
  97.3651930  67.8826691  96.1091971  98.0675974  68.3347735  96.5765897
  97.0332559  67.2410510  96.7371864  95.8132292  66.4738448 110.4843180
  95.1830952  67.1554729 110.7178577  95.7068380  66.3621530 109.5396318
  91.1077264  66.1410244 101.4109104  90.3176318  66.3967773 100.9349215
  91.5988512  66.9558582 101.5161145 105.1241074  73.4815483 104.1614385
 105.9458518  73.0795671 103.8797067 105.1203477  73.3783717 105.1130501
  93.0592010  66.5054823  98.3692581  92.2623173  66.6173518  98.8876077
  92.8317602  66.8441476  97.5033471  98.8897677  73.0299527 106.3175096
  98.9542110  73.4919934 107.1533267  98.1808601  72.3996891 106.4457405
  89.3914967  66.3940735 103.8424095  89.6423006  67.2787744 104.1081671
  89.9274516  66.2145336 103.0699187 113.2147067  69.8254232 100.5099356
 112.4610775  69.2561630 100.3543361 113.3494608  69.7916896 101.4569991
  98.6045695  74.6967634  96.1854076  98.4691370  75.5419170  96.6138924
  99.1455507  74.8986912  95.4220010  95.0913035  60.7759214 112.8468431
  94.6979980  60.2225412 113.5216075  95.9079175  61.0869792 113.2374949
  92.0575092  72.2143072  96.7582001  92.5699613  73.0086322  96.9087566
  92.7097805  71.5169363  96.6915602  93.8669977  75.3308828  98.8404754
  94.0436605  76.2526793  98.6525738  94.6626811  75.0167248  99.2699134
  98.0080996  62.1917093 110.4388688  98.7490709  62.7924246 110.3593150
  98.2398918  61.4494731 109.8806730  93.1522334  67.3773460 108.7166917
  93.0375849  66.4758717 109.0174016  92.2966851  67.6237157 108.3651734
 100.2314171  75.3191201 110.3154418  99.7878026  74.5327579 109.9975322
 100.8931385  75.5070351 109.6498309  94.9901293  76.8487002 104.8415096
  95.5408718  76.7204066 104.0692090  94.1512768  77.1481891 104.4909989
 102.3295409  75.5994000 108.3435819 102.3113885  76.4202882 107.8516088
 103.2515329  75.4748076 108.5685960  98.7868464  73.1138130 109.1859328
  99.3196800  72.3526418 108.9558636  98.2582545  72.8211782 109.9283482
 101.9538159  58.2198196 104.7152969 101.6102428  59.1099838 104.6392080
 102.3217121  58.0299854 103.8522554  90.0224009  70.5431726  97.5341571
  90.8599231  70.9528735  97.3175279  90.2002277  69.6031169  97.5041765
 101.9188441  68.2106807  93.2225404 101.4035065  68.9811412  93.4613792
 101.6465750  67.5371943  93.8458466  99.5035552  63.0556508  98.2810643
  98.6477149  62.6663358  98.1016282  99.9162504  63.1348469  97.4210428
 101.0334699  60.5902851 102.6802203 100.5299494  60.5532986 101.8670008
 101.3265306  61.4995594 102.7398859  97.2777585  60.6741581 101.6868384
  98.1430582  60.4784389 101.3274274  97.3455094  60.4451933 102.6137741
 106.8922715  70.9639162  95.1578578 106.1152158  70.6250321  94.7133740
 107.5714196  70.9691785  94.4833543 101.7074744  66.0833899  95.0485186
 101.4024880  66.3980048  95.8995329 102.6605187  66.1615319  95.0912519
 100.1521176  72.2424122  96.6978140  99.6242538  71.5076882  96.3851377
  99.6508679  73.0198799  96.4518108 105.1314022  70.4373143 101.8145186
 104.4737697  71.1272404 101.9025315 105.9354421  70.8269575 102.1579172
  94.8839904  62.9043789  99.0584751  95.4583656  62.6818970  98.3257944
  95.4710886  62.9732483  99.8113352 103.9419481  68.7917516  99.8649128
 104.4551363  69.4247507 100.3670837 104.5920705  68.1918711  99.4992488
  95.2109491  64.9348250  93.0780636  94.3746803  65.2722936  93.3989911
  95.0714261  64.7997230  92.1407773  97.1862572  59.7785038  97.7859821
  96.5326984  59.4634055  97.1616435  97.1443046  59.1560778  98.5119643
  98.2973776  70.0604333  89.7013113  97.3900838  69.8293586  89.9004262
  98.7944808  69.2641952  89.8887094 101.2041855  78.7701840  92.6209799
 100.5303554  79.0733537  93.2294757 101.5907677  79.5730920  92.2715256
 100.4200312  66.2666971 102.1107468  99.5022873  66.4881918 101.9529156
 100.8360456  66.3413282 101.2519176 101.2035360  67.6658387  97.2410148
 101.9507179  68.1779784  96.9317270 101.4726949  67.3442440  98.1014542
  99.4762010  70.1616928  94.2237103  98.5673229  69.8775960  94.3209572
  99.5057094  70.5816006  93.3640410 104.7081277  73.7723517  97.9928270
 104.2543604  72.9314427  98.0493461 104.0775244  74.4084915  98.3303050
 103.6514197  64.7015503  99.2228938 102.9136954  64.1892889  99.5539180
 103.9040970  64.2615885  98.4112215 103.1514217  75.6100014  98.9278088
 103.4437191  76.1705071  98.2090454 103.6612837  75.9028575  99.6831248
 103.7525824  57.4791755  99.8170707 104.0584701  56.6189119  99.5296622
 104.4778429  58.0709375  99.6169701  90.0450180  67.8822442  98.2052305
  89.8474580  67.2891802  97.4803371  89.4896844  67.5774652  98.9228244
  98.0246904  67.7745548 100.3246898  98.0795514  66.8219385 100.2489375
  97.2138106  67.9304987 100.8088196  99.1738098  71.7025671  91.5625181
  98.7357528  70.9861530  91.1030819  99.9148539  71.9301786  91.0010273
  95.9639264  66.3922608  98.0837277  95.1507129  66.6916778  98.4902469
  96.4598258  65.9978297  98.8011759  98.1147842  76.3880365 100.0171542
  98.0724021  76.6141211  99.0880074  99.0310541  76.1543739 100.1657343
 101.5613476  66.8564432 106.9152171 101.9162863  67.0835906 107.7746637
 102.2085607  67.1882809 106.2929426 107.2911212  69.9782868  97.6201500
 107.1529111  70.1684464  96.6922689 106.9347431  70.7402251  98.0769551
  95.4553339  63.9640963 103.6998512  96.0952718  63.8229723 103.0021475
  94.6230869  63.6775477 103.3237114 107.3180592  72.0459395 102.6312771
 107.7517099  71.9534684 103.4795825 108.0312173  72.0216896 101.9932787
  96.2313642  73.2643394  99.8133504  97.0254241  72.7693714  99.6116079
  95.5205335  72.7361257  99.4501210 101.0508487  75.6461489 104.1645872
 101.1045509  76.2152426 104.9323588 100.1823268  75.8163374 103.7999909
  92.5396406  67.4086476  95.8893257  91.6093994  67.3470931  96.1063219
  92.6353878  66.8862428  95.0929898  92.4581955  63.9341288  98.4771499
  92.7188772  64.8486622  98.3680659  93.2799127  63.4665731  98.6268112
  93.9306880  65.3479046 105.6470323  94.6029934  65.1396408 104.9982972
  93.1036667  65.1501132 105.2075556 108.1796142  72.0883096 105.1645657
 108.3732032  72.9928906 105.4104932 108.0796760  71.6290515 105.9984242
  99.8332452  61.9740987 107.6635984  99.1860367  62.6730936 107.5700460
 100.6033468  62.4077130 108.0312232 103.2411250  72.2389839 110.7386537
 103.0896757  72.0100390 109.8216621 103.2315930  73.1960440 110.7517882
 100.0096587  69.8121751 105.7232804 100.9388647  69.9632911 105.5501771
  99.5887617  69.9005772 104.8681450  98.8084918  73.8372416 103.4931341
  98.6696004  73.4691200 104.3657280  98.0199515  74.3520055 103.3215299
  99.4033070  78.9381512  94.8356878  99.5784826  78.4669556  95.6502501
  98.7165858  79.5647279  95.0638139 100.3590134  73.2154019 100.8820179
 100.0239966  73.1754789 101.7777829  99.8594079  72.5498734 100.4090589
  94.3334378  68.6221649 106.4072760  94.1954176  67.8901887 107.0084299
  95.2439301  68.5330549 106.1256948 103.2949325  70.5610053  91.1557239
 102.6778496  69.8356881  91.0590292 102.8265814  71.3219413  90.8124313
  96.9616678  68.3341608 105.8956440  97.6716297  67.6934800 105.8543058
  96.9185986  68.5854503 106.8182621 104.9503457  75.2708961 108.8163019
 104.8916003  74.5868181 108.1493602 105.3522975  76.0127951 108.3643645
  95.6745612  65.3206826 107.7152079  95.1382969  64.8697564 108.3673676
  95.0862321  65.4552735 106.9722544  93.9694156  82.0870875 101.6096738
  94.2090754  82.7189399 102.2875757  93.1263352  81.7358915 101.8962097
  95.0847871  64.7795477  90.2778543  94.2077338  64.6584278  89.9140790
  95.5605624  63.9881556  90.0257432 104.9520864  73.2348545 107.0476999
 104.0647643  72.8974467 107.1703398 105.5219415  72.5031576 107.2845764
  86.6050011  69.5672637 100.3720050  87.2921051  69.2534367  99.7841066
  86.4498140  70.4714002 100.0987302  91.4084733  64.4562833 104.8005074
  91.3242922  63.8488503 104.0655484  90.5867440  64.9471852 104.8014570
  98.4822018  77.8949998 104.0138242  98.4092189  78.7004969 104.5257547
  98.0399411  78.0941963 103.1886264  98.2711797  77.1321768  97.5241064
  97.4879319  77.6743448  97.6179288  98.9704542  77.6495747  97.9235305
 101.5808447  62.9416397 100.1675269 102.0777147  62.1886359  99.8476339
 100.8095429  62.9780714  99.6018478 109.4338205  68.6456763 101.8093561
 109.4228081  69.5281478 101.4387494 108.5655584  68.2928313 101.6148098
 100.9420701  77.7936832 106.1696401 101.6548673  78.4284296 106.0972302
 100.4510730  77.8900698 105.3536403 102.6638228  71.6988084  97.7413692
 101.7294507  71.8189547  97.5718397 102.8414897  70.7960551  97.4773702
  98.1643416  65.0833780  99.8946954  97.7941204  64.5304820 100.5827859
  98.6602509  64.4791913  99.3421954 106.0510779  67.5405404  98.2763727
 106.5171232  68.3733395  98.2024029 106.5018280  67.0750385  98.9808985
  95.9932615  75.5431275 106.9901972  96.6942074  76.1767758 107.1431366
  95.5227730  75.8846007 106.2297611 104.1187010  73.8849225  95.2749879
 104.3946854  73.7705819  96.1843753 103.2491509  73.4866710  95.2362052
 104.0227442  59.9085991 102.3154628 103.1090522  60.1390217 102.4836835
 104.4520544  59.9924435 103.1668660 103.7933901  68.0975882 104.8154522
 103.1405351  68.3451790 104.1606975 104.1714281  67.2840021 104.4816999
 100.7541075  78.1335576  98.9182692 100.9363469  77.3157232  99.3810445
 101.5774061  78.3503268  98.4807582 101.0883240  77.0603761  96.1797741
 101.6171006  76.5496215  95.5667903 101.3511460  76.7446291  97.0443274
  99.8421474  68.8395694 111.3020559  99.1662111  68.7389823 111.9722934
 100.6649108  68.6834907 111.7656556  91.5900333  75.0767630 103.9233074
  92.1753770  74.3311318 104.0560978  91.3925171  75.3871587 104.8069738
  94.4438988  78.1118877  98.9395517  93.7749363  78.5965005  98.4559557
  94.3051858  78.3588098  99.8538895  86.1817987  67.6473230 102.6437517
  86.2202087  67.1136821 103.4374636  85.6758280  67.1208436 102.0248495
  98.5844257  80.1462621 105.5378175  99.1362565  80.3094242 106.3027260
  98.9250450  80.7367059 104.8658200  93.5608750  62.4937771 106.1400060
  93.6250076  63.3552602 105.7277457  93.4975870  61.8811772 105.4072418
  93.0361022  64.5660903 109.7873094  93.6633061  64.1837981 110.4010618
  92.1788941  64.3475105 110.1528786  89.8126565  66.3737332  95.7191449
  90.1080006  65.4648011  95.6658503  88.9114601  66.3525072  95.3972451
 101.7212644  78.0944597 102.5241857 101.5963783  77.2934336 102.0152803
 102.3791735  78.5890790 102.0355827  93.3420812  64.4493329 101.7018997
  92.6207398  65.0629297 101.5626471  94.1314068  64.9851094 101.6235643
 103.7847552  75.8953617 104.1521407 102.8377888  75.7758968 104.0799734
 104.1330325  75.0076115 104.2347669  96.1447126  61.7847756 107.9759649
  96.6681527  62.0310052 108.7385958  95.9259459  62.6167790 107.5562787
  91.5414407  64.0551430  95.8430774  91.2127113  63.1748809  95.6605880
  91.8953777  63.9999099  96.7307163 100.7893986  75.6906333 100.3525759
 100.6418948  74.7623040 100.5333330 101.6147479  75.7126424  99.8682835
  94.6556230  64.3424400  96.2106252  94.9952302  64.8710321  95.4884860
  95.1028350  64.6804806  96.9864818 104.3928107  76.5134892 101.4390632
 105.3174655  76.3077753 101.3015083 104.2243411  76.2651293 102.3479974
  97.3499671  62.7261451 105.6609320  97.0096491  61.9269264 106.0630000
  96.6438677  63.0263161 105.0886153  98.0016142  59.8110763 104.1136643
  98.8242212  59.3371241 103.9915533  98.2454206  60.5901247 104.6135329
  96.6424377  62.8399021  94.4099544  97.3632739  63.2180274  93.9063261
  96.0189681  63.5587898  94.5134522 100.7855500  63.5444170  95.3457877
 101.0019114  64.4268808  95.0446705 100.3049567  63.1530384  94.6163519
  95.5254721  66.5029884 101.9228621  95.3799302  66.8170187 102.8152903
  95.0479925  67.1214784 101.3699520  97.3851104  63.4932432 101.9709511
  97.3712673  62.5973525 101.6341809  98.1023532  63.5003095 102.6047797
  99.2377235  63.9269772 104.0162638  98.9795013  64.8486843 104.0146969
  98.7062275  63.5300206 104.7063102 104.1823424  77.0320559  96.7952724
 104.3560301  76.4666981  96.0426576 104.6752315  77.8321454  96.6132214
  90.0000383  69.0435228 104.8616283  89.4553851  69.8195036 104.9936557
  90.8779733  69.3906033 104.7035404  96.7888000  62.3746812  97.2397081
  96.9103911  61.4463458  97.4387969  96.4990042  62.3885498  96.3275396
  99.6579190  60.0601722 100.3763801  99.6800887  60.1241055  99.4215780
 100.0747249  59.2206231 100.5704307 110.0362815  69.7956982  98.4143023
 110.4793961  69.0464307  98.0162147 109.1589325  69.7867118  98.0316755
 105.1698596  76.3487323  93.8949622 105.8649501  76.9694016  94.1136937
 105.5121746  75.4982675  94.1702000  90.7866405  68.1705124 107.7546439
  90.0448141  68.3187760 108.3411070  90.4659149  68.4313390 106.8913189
 107.0690019  73.7987029  95.4236953 107.5941343  74.1374302  94.6986273
 106.9812372  72.8634044  95.2400087  98.7310068  77.7121103 107.5526829
  99.0397194  77.4670249 108.4249529  99.5285550  77.9167741 107.0645700
  98.7530680  79.8659012  99.7832206  98.3135670  79.3735391 100.4765063
  99.5038797  79.3231980  99.5424281  91.2323019  76.0570553  99.7856834
  92.0581039  75.7574325  99.4055478  90.8817071  75.2878176 100.2346623
  96.2004552  75.4097021 101.8554508  95.5784561  74.7467726 101.5556735
  96.8709419  75.4358153 101.1728155  89.4331624  73.9756880 100.7445768
  88.5963532  73.5479054 100.5629769  89.4055269  74.1689323 101.6816559
  96.2729080  63.8878809 111.4487014  96.3217235  64.7640932 111.0664783
  96.8151594  63.3456202 110.8758657 106.8781800  71.2812399 108.0420879
 106.9279805  71.1162406 108.9836402 106.7695724  70.4139658 107.6518760
  95.7618059  73.9600945  95.3312968  95.9106179  74.6436409  94.6779641
  96.5684502  73.9406035  95.8462424 104.1685563  67.2643327 109.3580186
 105.0695425  67.1249792 109.0664184 104.2433537  67.4297782 110.2978363
  98.5028368  64.6410182 108.2033372  97.6331677  64.9343748 107.9315961
  98.7387848  65.2250627 108.9240636 108.3799997  73.7009340 108.2862901
 108.0884805  74.0639321 109.1226362 107.7672128  72.9876349 108.1076233
 109.5795679  71.2662220 100.8065471 110.4142571  71.7052024 100.9703031
 109.7154808  70.7900873  99.9873717 106.6287185  68.8241955 106.7542959
 107.1041307  69.0169601 105.9461810 105.7052751  68.8801141 106.5086342
  93.5170692  69.9866122  96.3374037  93.2716734  69.0828452  96.5354247
  93.6866606  69.9883273  95.3953515 101.2067402  60.8589799 105.7198793
 101.7249346  61.5950826 105.3945281 100.8522535  61.1653792 106.5545552
  92.7866339  65.7194480  93.8360199  92.0935584  65.7938835  93.1800234
  92.5418091  64.9554823  94.3581715 101.4579996  57.2790081 101.2399689
 101.7381750  56.6113270 101.8660116 102.2430603  57.4719177 100.7274353
  99.2613464  76.4549075  92.8024716  98.6887432  77.0739262  92.3495187
  99.8346258  77.0048437  93.3364638 105.3288854  65.7007715 104.9871264
 106.2806277  65.8005813 105.0083488 105.1592305  64.9085984 105.4969349
 103.3503234  62.7863298 105.1730665 102.7553166  63.0668311 104.4777154
 103.0652931  63.2757199 105.9447406 102.4810724  76.7386225  93.9333298
 103.4141397  76.6731787  94.1366173 102.3933937  77.5742492  93.4747831
 105.1098741  76.0552096  90.8937245 105.0312372  75.7211959  91.7873003
 105.9308408  76.5473863  90.8928718 107.8076932  68.9213835 104.1013564
 107.7753252  67.9829836 104.2873248 108.4177556  68.9997872 103.3679389
  99.6460263  67.7909888  90.1440768 100.5919368  67.6616096  90.2129186
  99.2674508  67.0524550  90.6210196 107.9571421  65.7124878 104.1471847
 107.4410469  64.9283335 103.9601776 108.8411369  65.3843595 104.3118367
 105.6182148  59.4565894 100.1067660 105.4206969  59.1480982 100.9910992
 106.2281853  60.1827533 100.2365590 113.6253482  69.9829842 103.2419601
 114.3556870  69.7215130 103.8027304 113.0160427  69.2458564 103.2821669
 111.7068779  68.1237704 103.8394052 110.9801943  67.9893669 103.2310544
 111.2916066  68.4314533 104.6450770  99.5298956  71.8427634 111.6041425
 100.4501965  72.0206233 111.7981472  99.4948539  70.8983679 111.4521124
  97.8303180  65.7159864  90.0795653  96.9234636  65.4192977  90.1558367
  98.1079161  65.4189682  89.2129940  88.7481121  67.0366228 100.5294700
  88.4283905  66.1831536 100.2369074  88.2014549  67.2514806 101.2852667
  92.5261028  69.7528669 104.2464206  92.7447038  70.6845776 104.2652240
  92.9386802  69.3936643 105.0319010  99.4465246  60.2596754  96.2339895
  98.6365974  59.9143839  96.6095141 100.1349663  59.9504298  96.8227506
 101.3755794  59.3374801  97.8564191 101.9286833  59.7570254  98.5154214
 101.6125881  58.4110549  97.8987147  97.3988893  65.3261874 113.6366955
  97.2985620  66.2756231 113.5679046  97.1810435  64.9980113 112.7643025
  96.6001965  62.5746799  90.2207632  97.4621129  62.9001698  90.4803450
  96.7852309  61.7878295  89.7080698  88.6169381  70.6569139 102.4987821
  87.9232852  70.2423092 101.9857776  89.3642372  70.6989676 101.9021240
 104.7534601  61.4475326  97.3642855 104.1733270  62.1060130  96.9820908
 104.4870534  60.6252671  96.9530273 103.2038168  60.8480384  99.5664176
 103.7037946  60.9596918  98.7578495 103.8473776  60.5441436 100.2064984
  97.2620163  68.7559013 112.4532017  96.7787245  69.5559373 112.6595906
  97.3481102  68.7666958 111.4999461  90.5306123  70.5887393 100.3753836
  90.5076811  70.6875080  99.4235719  90.8406760  71.4352544 100.6971002
  93.1893501  72.6463548 104.4900451  94.1436754  72.6147490 104.4230382
  92.9906025  72.1854172 105.3050676  93.7792883  71.2164664 107.0571248
  94.5985772  71.7108743 107.0806086  94.0529691  70.2996632 107.0288816
 103.5359479  63.6075416  96.4199204 102.6485334  63.8925067  96.2019399
 103.9513468  63.4469180  95.5726481 106.8874015  63.6321937 100.1353543
 107.6634406  64.1218390 100.4078160 106.1622150  64.0579991 100.5925412
 109.3246574  64.3449556 101.1927484 109.9191065  64.1045292 100.4820792
 109.3973158  63.6256687 101.8201020  91.5443730  78.1883167 101.5070648
  91.4098198  77.4283568 100.9408646  91.1275792  78.9124067 101.0399437
 102.6802693  73.3720091  90.5147224 103.3838543  73.5770093  91.1304879
 101.9565341  73.9396853  90.7796307 103.5100503  69.1229952  96.6349494
 103.4535704  69.5798504  95.7957126 104.0628845  68.3620637  96.4572337
 107.3205309  64.9119684  97.4599613 107.0642243  64.5116320  98.2907821
 106.6958177  65.6263478  97.3349753 111.6317647  67.6515757  99.9670905
 111.0717205  67.7208947 100.7402467 111.0261150  67.4756742  99.2470401
  94.7012856  79.0852484 101.7189091  94.5845240  80.0297917 101.6167781
  93.8805302  78.7826046 102.1074890 104.5889390  73.8102620  92.5645684
 105.4234994  73.3783819  92.3823159 104.4273733  73.6384634  93.4922578
 104.2435282  70.3134733  93.9302023 104.1884086  70.1479005  92.9890467
 103.6181338  71.0210766  94.0864213  89.0327797  65.5502798 107.7563445
  89.6786661  65.0401752 108.2450670  88.8244948  66.2871479 108.3306871
  97.5531408  59.8142842  93.5087341  97.5410078  60.7584682  93.6655612
  98.4454830  59.6312988  93.2146803  95.7267370  79.7380746 104.9345020
  96.6294616  79.7704357 105.2511514  95.5004740  78.8081197 104.9491355
  97.4820972  78.4911733 101.5955098  96.5316603  78.4913594 101.4819470
  97.7853458  77.7444467 101.0791133 101.3683527  56.4085619  97.7633278
 100.6015923  55.8544106  97.9089961 101.7794232  56.4807488  98.6247430
  93.3725288  62.6970415 111.8538460  94.2356750  62.3407220 112.0641784
  92.7990699  62.3584310 112.5413864 110.0263372  84.2799699 102.5962385
 109.6881883  84.1640764 101.7082920 110.8953140  83.8790864 102.5763391
 105.8850187  86.1335176  98.5859276 105.3215052  86.0425113  97.8175564
 105.7702582  85.3135080  99.0661769 103.4314619  87.6286367 101.4243497
 104.2235911  87.2877192 101.0089796 103.6711269  87.7381342 102.3445650
 111.4649746  89.8006143  93.8973741 110.8137726  90.3860224  93.5107755
 112.2594109  90.3312338  93.9568779 105.3905373  86.8895281  94.2960875
 106.1636249  86.3424268  94.1573751 105.7430772  87.7539530  94.5075337
 107.7271651  83.0487947  91.9279325 107.9797172  82.5269468  91.1662788
 106.7896210  82.8854092  92.0306009 112.7714934  82.0523725  99.7354069
 113.5578023  81.6343148  99.3844486 113.0353638  82.9569817  99.9035717
 112.9425011  87.4896575  94.4342725 112.3070844  87.5631202  95.1463630
 112.6122417  88.0790174  93.7561805 118.1723361  81.9898958 100.6387047
 118.9048533  81.4198175 100.8724877 117.4162717  81.6020559 101.0793553
 107.4467940  84.9516053  94.1303700 107.3304198  84.2760956  94.7984785
 107.5570200  84.4648427  93.3135853 109.7899481  84.4126200  97.8350390
 109.4257688  83.8856821  98.5463311 110.6466596  84.0224669  97.6616875
 115.6948781  75.7020532 105.0981656 115.3632106  76.5715943 104.8742871
 115.0994395  75.3856816 105.7775686 109.4304968  79.4416100  92.8311738
 109.5979370  80.3096336  93.1982209 109.2402137  79.6043381  91.9073027
 105.6392782  84.3546875 100.5314273 104.7143279  84.2223089 100.7391965
 105.8877195  85.1341095 101.0284215 109.4094188  81.8973757  93.8158405
 109.2893814  82.3430808  94.6543885 108.7146777  82.2459075  93.2571943
 103.0001593  83.9980149 101.3658062 103.1293974  84.2514628 102.2797474
 102.3199045  84.5907857 101.0462717 107.1701081  94.6677399  97.4648536
 107.0925110  95.6185224  97.5437017 106.5662724  94.3223271  98.1223462
 115.1079255  82.3695230  94.6438739 116.0197111  82.6022617  94.4686436
 114.5988902  82.9532274  94.0813818 112.4515229  78.5453266 102.8928600
 111.5899708  78.8434520 103.1845337 112.4777664  78.7623665 101.9609632
 109.2676799  87.0895457  99.3002405 109.7315144  87.3683160  98.5107028
 109.0033597  86.1878901  99.1175496 106.1600880  86.6366938 102.2382169
 106.7302237  87.0654207 101.5999653 106.7508992  86.3549523 102.9366354
 108.2045685  83.2118609  96.1091971 108.9069728  83.6639653  96.5765897
 107.8726313  82.5702428  96.7371864 101.9471019  81.4702162 101.4109104
 101.1570073  81.7259690 100.9349215 102.4382266  82.2850500 101.5161145
 103.8985764  81.8346741  98.3692581 103.1016927  81.9465435  98.8876077
 103.6711356  82.1733393  97.5033471 100.2308722  81.7232652 103.8424095
 100.4816760  82.6079662 104.1081671 100.7668270  81.5437254 103.0699187
 109.4439449  90.0259552  96.1854076 109.3085124  90.8711087  96.6138924
 109.9849262  90.2278829  95.4220010 102.8968847  87.5434990  96.7582001
 103.4093367  88.3378240  96.9087566 103.5491560  86.8461280  96.6915602
 104.7063732  90.6600746  98.8404754 104.8830360  91.5818711  98.6525738
 105.5020565  90.3459165  99.2699134 112.7931913  73.5490114 104.7152969
 112.4496182  74.4391755 104.6392080 113.1610876  73.3591771 103.8522554
 100.8617764  85.8723644  97.5341571 101.6992986  86.2820652  97.3175279
 101.0396031  84.9323086  97.5041765 112.7582196  83.5398725  93.2225404
 112.2428819  84.3103329  93.4613792 112.4859504  82.8663861  93.8458466
 110.3429307  78.3848426  98.2810643 109.4870903  77.9955276  98.1016282
 110.7556259  78.4640386  97.4210428 111.8728453  75.9194769 102.6802203
 111.3693249  75.8824904 101.8670008 112.1659060  76.8287511 102.7398859
 108.1171339  76.0033498 101.6868384 108.9824336  75.8076307 101.3274274
 108.1848848  75.7743850 102.6137741 117.7316470  86.2931079  95.1578578
 116.9545913  85.9542239  94.7133740 118.4107951  86.2983703  94.4833543
 112.5468499  81.4125817  95.0485186 112.2418634  81.7271966  95.8995329
 113.4998941  81.4907237  95.0912519 110.9914931  87.5716040  96.6978140
 110.4636292  86.8368800  96.3851377 110.4902433  88.3490716  96.4518108
 105.7233658  78.2335706  99.0584751 106.2977410  78.0110888  98.3257944
 106.3104641  78.3024401  99.8113352 114.7813236  84.1209433  99.8649128
 115.2945117  84.7539425 100.3670837 115.4314459  83.5210629  99.4992488
 106.0503245  80.2640167  93.0780636 105.2140558  80.6014854  93.3989911
 105.9108015  80.1289147  92.1407773 108.0256326  75.1076955  97.7859821
 107.3720738  74.7925972  97.1616435 107.9836800  74.4852696  98.5119643
 109.1367531  85.3896250  89.7013113 108.2294593  85.1585504  89.9004262
 109.6338563  84.5933870  89.8887094 112.0435610  94.0993758  92.6209799
 111.3697309  94.4025454  93.2294757 112.4301432  94.9022838  92.2715256
 111.2594066  81.5958889 102.1107468 110.3416628  81.8173836 101.9529156
 111.6754210  81.6705199 101.2519176 112.0429114  82.9950305  97.2410148
 112.7900933  83.5071702  96.9317270 112.3120704  82.6734357  98.1014542
 110.3155764  85.4908845  94.2237103 109.4066984  85.2067878  94.3209572
 110.3450848  85.9107924  93.3640410 114.4907951  80.0307421  99.2228938
 113.7530708  79.5184807  99.5539180 114.7434725  79.5907802  98.4112215
 114.5919579  72.8083673  99.8170707 114.8978455  71.9481036  99.5296622
 115.3172183  73.4001293  99.6169701 100.8843935  83.2114359  98.2052305
 100.6868335  82.6183720  97.4803371 100.3290599  82.9066570  98.9228244
 108.8640658  83.1037466 100.3246898 108.9189268  82.1511302 100.2489375
 108.0531860  83.2596905 100.8088196 110.0131852  87.0317589  91.5625181
 109.5751282  86.3153448  91.1030819 110.7542293  87.2593704  91.0010273
 106.8033018  81.7214526  98.0837277 105.9900884  82.0208696  98.4902469
 107.2992013  81.3270214  98.8011759 118.1304967  85.3074786  97.6201500
 117.9922866  85.4976382  96.6922689 117.7741186  86.0694169  98.0769551
 106.2947093  79.2932881 103.6998512 106.9346472  79.1521640 103.0021475
 105.4624624  79.0067395 103.3237114 107.0707397  88.5935312  99.8133504
 107.8647995  88.0985632  99.6116079 106.3599089  88.0653175  99.4501210
 103.3790160  82.7378393  95.8893257 102.4487749  82.6762849  96.1063219
 103.4747632  82.2154346  95.0929898 103.2975710  79.2633206  98.4771499
 103.5582527  80.1778539  98.3680659 104.1192882  78.7957649  98.6268112
 104.7700635  80.6770963 105.6470323 105.4423688  80.4688325 104.9982972
 103.9430421  80.4793049 105.2075556 110.2426825  94.2673430  94.8356878
 110.4178581  93.7961473  95.6502501 109.5559613  94.8939196  95.0638139
 114.1343080  85.8901971  91.1557239 113.5172250  85.1648799  91.0590292
 113.6659568  86.6511331  90.8124313 105.9241626  80.1087395  90.2778543
 105.0471092  79.9876196  89.9140790 106.3999379  79.3173473  90.0257432
  97.4443766  84.8964555 100.3720050  98.1314806  84.5826285  99.7841066
  97.2891895  85.8005919 100.0987302 102.2478488  79.7854751 104.8005074
 102.1636677  79.1780421 104.0655484 101.4261194  80.2763769 104.8014570
 109.1105552  92.4613685  97.5241064 108.3273074  93.0035365  97.6179288
 109.8098297  92.9787665  97.9235305 112.4202202  78.2708315 100.1675269
 112.9170901  77.5178277  99.8476339 111.6489183  78.3072631  99.6018478
 113.5031983  87.0280002  97.7413692 112.5688261  87.1481464  97.5718397
 113.6808651  86.1252469  97.4773702 109.0037171  80.4125698  99.8946954
 108.6334958  79.8596738 100.5827859 109.4996263  79.8083831  99.3421954
 116.8904534  82.8697321  98.2763727 117.3564986  83.7025313  98.2024029
 117.3412034  82.4042303  98.9808985 114.9580765  89.2141142  95.2749879
 115.2340609  89.0997737  96.1843753 114.0885264  88.8158627  95.2362052
 114.8621197  75.2377908 102.3154628 113.9484276  75.4682135 102.4836835
 115.2914298  75.3216352 103.1668660 111.9276994  92.3895678  96.1797741
 112.4564761  91.8788133  95.5667903 112.1905214  92.0738209  97.0443274
  97.0211742  82.9765148 102.6437517  97.0595841  82.4428739 103.4374636
  96.5152035  82.4500353 102.0248495 104.4002504  77.8229688 106.1400060
 104.4643831  78.6844519 105.7277457 104.3369624  77.2103690 105.4072418
 100.6520320  81.7029250  95.7191449 100.9473761  80.7939929  95.6658503
  99.7508355  81.6816990  95.3972451 104.1814567  79.7785247 101.7018997
 103.4601152  80.3921214 101.5626471 104.9707822  80.3143012 101.6235643
 102.3808161  79.3843348  95.8430774 102.0520867  78.5040727  95.6605880
 102.7347532  79.3291016  96.7307163 105.4949984  79.6716318  96.2106252
 105.8346057  80.2002239  95.4884860 105.9422105  80.0096724  96.9864818
 108.1893425  78.0553368 105.6609320 107.8490245  77.2561181 106.0630000
 107.4832431  78.3555079 105.0886153 108.8409897  75.1402681 104.1136643
 109.6635966  74.6663159 103.9915533 109.0847960  75.9193164 104.6135329
 107.4818131  78.1690939  94.4099544 108.2026494  78.5472192  93.9063261
 106.8583436  78.8879816  94.5134522 111.6249254  78.8736088  95.3457877
 111.8412869  79.7560726  95.0446705 111.1443321  78.4822302  94.6163519
 106.3648476  81.8321801 101.9228621 106.2193056  82.1462104 102.8152903
 105.8873679  82.4506702 101.3699520 108.2244859  78.8224349 101.9709511
 108.2106427  77.9265443 101.6341809 108.9417287  78.8295013 102.6047797
 110.0770989  79.2561690 104.0162638 109.8188767  80.1778760 104.0146969
 109.5456030  78.8592124 104.7063102 100.8394138  84.3727146 104.8616283
 100.2947606  85.1486954 104.9936557 101.7173488  84.7197950 104.7035404
 107.6281754  77.7038730  97.2397081 107.7497666  76.7755376  97.4387969
 107.3383797  77.7177416  96.3275396 110.4972945  75.3893640 100.3763801
 110.5194642  75.4532973  99.4215780 110.9141004  74.5498149 100.5704307
 116.0092351  91.6779241  93.8949622 116.7043255  92.2985934  94.1136937
 116.3515501  90.8274592  94.1702000 117.9083774  89.1278947  95.4236953
 118.4335098  89.4666219  94.6986273 117.8206126  88.1925962  95.2400087
 102.0716773  91.3862471  99.7856834 102.8974793  91.0866243  99.4055478
 101.7210825  90.6170093 100.2346623 100.2725378  89.3048797 100.7445768
  99.4357287  88.8770972 100.5629769 100.2449024  89.4981241 101.6816559
 106.6011813  89.2892862  95.3312968 106.7499934  89.9728327  94.6779641
 107.4078257  89.2697952  95.8462424 104.3564446  85.3158040  96.3374037
 104.1110488  84.4120370  96.5354247 104.5260361  85.3175190  95.3953515
 112.0461156  76.1881716 105.7198793 112.5643100  76.9242743 105.3945281
 111.6916289  76.4945710 106.5545552 103.6260094  81.0486398  93.8360199
 102.9329339  81.1230753  93.1800234 103.3811846  80.2846741  94.3581715
 112.2973750  72.6081999 101.2399689 112.5775504  71.9405188 101.8660116
 113.0824357  72.8011094 100.7274353 110.1007219  91.7840993  92.8024716
 109.5281186  92.4031180  92.3495187 110.6740013  92.3340354  93.3364638
 113.3204479  92.0678143  93.9333298 114.2535152  92.0023705  94.1366173
 113.2327692  92.9034410  93.4747831 115.9492495  91.3844013  90.8937245
 115.8706127  91.0503877  91.7873003 116.7702162  91.8765781  90.8928718
 110.4854017  83.1201806  90.1440768 111.4313122  82.9908014  90.2129186
 110.1068262  82.3816467  90.6210196 116.4575902  74.7857812 100.1067660
 116.2600723  74.4772900 100.9910992 117.0675608  75.5119450 100.2365590
 108.6696935  81.0451782  90.0795653 107.7628390  80.7484895  90.1558367
 108.9472916  80.7481600  89.2129940  99.5874875  82.3658145 100.5294700
  99.2677659  81.5123454 100.2369074  99.0408303  82.5806723 101.2852667
 103.3654783  85.0820586 104.2464206 103.5840792  86.0137694 104.2652240
 103.7780556  84.7228561 105.0319010 110.2859000  75.5888672  96.2339895
 109.4759729  75.2435757  96.6095141 110.9743417  75.2796215  96.8227506
 112.2149549  74.6666718  97.8564191 112.7680587  75.0862172  98.5154214
 112.4519635  73.7402467  97.8987147 107.4395719  77.9038717  90.2207632
 108.3014883  78.2293615  90.4803450 107.6246063  77.1170213  89.7080698
  99.4563135  85.9861057 102.4987821  98.7626606  85.5715010 101.9857776
 100.2036126  86.0281593 101.9021240 115.5928356  76.7767244  97.3642855
 115.0127025  77.4352048  96.9820908 115.3264288  75.9544588  96.9530273
 114.0431922  76.1772301  99.5664176 114.5431700  76.2888836  98.7578495
 114.6867530  75.8733354 100.2064984 101.3699878  85.9179311 100.3753836
 101.3470566  86.0166998  99.4235719 101.6800514  86.7644461 100.6971002
 114.3753234  78.9367334  96.4199204 113.4879089  79.2216985  96.2019399
 114.7907223  78.7761097  95.5726481 117.7267770  78.9613855 100.1353543
 118.5028160  79.4510307 100.4078160 117.0015904  79.3871909 100.5925412
 120.1640329  79.6741474 101.1927484 120.7584819  79.4337210 100.4820792
 120.2366912  78.9548605 101.8201020 113.5196447  88.7012009  90.5147224
 114.2232297  88.9062011  91.1304879 112.7959096  89.2688771  90.7796307
 114.3494257  84.4521870  96.6349494 114.2929459  84.9090421  95.7957126
 114.9022600  83.6912555  96.4572337 118.1599063  80.2411602  97.4599613
 117.9035998  79.8408237  98.2907821 117.5351931  80.9555396  97.3349753
 115.4283145  89.1394538  92.5645684 116.2628749  88.7075736  92.3823159
 115.2667488  88.9676552  93.4922578 115.0829037  85.6426651  93.9302023
 115.0277841  85.4770923  92.9890467 114.4575092  86.3502684  94.0864213
  99.8721552  80.8794716 107.7563445 100.5180415  80.3693670 108.2450670
  99.6638703  81.6163397 108.3306871 108.3925162  75.1434760  93.5087341
 108.3803832  76.0876600  93.6655612 109.2848584  74.9604906  93.2146803
 112.2077282  71.7377537  97.7633278 111.4409678  71.1836023  97.9089961
 112.6187987  71.8099406  98.6247430 116.8897000  95.5932085  93.0780636
 116.0534312  95.9306772  93.3989911 116.7501770  95.4581065  92.1407773
 116.7635380  95.4379313  90.2778543 115.8864847  95.3168113  89.9140790
 117.2393133  94.6465391  90.0257432 114.4653848  96.3778315  93.8360199
 113.7723093  96.4522670  93.1800234 114.2205600  95.6138659  94.3581715
 119.5090689  96.3743700  90.0795653 118.6022145  96.0776812  90.1558367
 119.7866670  96.0773518  89.2129940 118.2789474  93.2330635  90.2207632
 119.1408638  93.5585533  90.4803450 118.4639818  92.4462131  89.7080698
 119.2318917  90.4726678  93.5087341 119.2197587  91.4168518  93.6655612
 120.1242339  90.2896823  93.2146803  52.9732309  -4.9720067  84.1893843
  52.8956339  -4.0212242  84.2682323  52.3693953  -5.3174195  84.8468769
  50.6119139  -2.2234673  88.3342045  50.8515737  -1.5916149  89.0121063
  49.7688336  -2.5746633  88.6207404  51.0863971  -6.1986671  85.6640823
  50.4174347  -5.7140543  85.1804863  50.9476841  -5.9517450  86.5784202
  55.2269240  -4.1642927  92.2623482  55.7787548  -4.0011306  93.0272567
  55.5675433  -3.5738489  91.5903507  55.3955663  -4.4446536  86.5077513
  54.9560653  -4.9370157  87.2010369  56.1463780  -4.9873568  86.2669588
  48.1868713  -6.1222381  88.2315955  48.0523181  -6.8821980  87.6653953
  47.7700775  -5.3981481  87.7644744  51.3437839  -5.2253064  88.4434398
  51.2270223  -4.2807631  88.3413088  50.5230285  -5.5279502  88.8320197
  52.3692353  -4.5724802  91.6590326  53.2719600  -4.5401191  91.9756821
  52.1429723  -5.5024351  91.6736662  66.6688355  -0.0305849  89.3207692
  66.3306866  -0.1464784  88.4328227  67.5378123  -0.4314684  89.3008698
  62.5275170   1.8229628  85.3104583  61.9640036   1.7319565  84.5420871
  62.4127566   1.0029532  85.7907075  67.1508138   1.1229003  95.2793897
  67.1396779   0.7281801  94.4074401  67.3128777   0.3895076  95.8727669
  60.0739602   3.3180819  88.1488803  60.8660894   2.9771644  87.7335103
  60.3136253   3.4275794  89.0690957  68.1074729   5.4900595  80.6219048
  67.4562709   6.0754676  80.2353062  68.9019092   6.0206790  80.6814085
  62.0330356   2.5789733  81.0206182  62.8061232   2.0318720  80.8819058
  62.3855755   3.4433982  81.2320643  63.8715399   3.9066115  94.2273081
  63.5805265   4.8111746  94.1119748  64.5072383   3.9482642  94.9417151
  64.7971606   1.2842963  90.8174441  65.3935178   1.0598986  90.1031404
  64.8546577   0.5427709  91.4199889  64.3696634  -1.2617601  78.6524632
  64.6222155  -1.7836080  77.8908095  63.4321193  -1.4251456  78.7551316
  69.5849994   3.1791027  81.1588032  68.9495827   3.2525654  81.8708937
  69.2547401   3.7684626  80.4807111  64.0892923   0.6410505  80.8549007
  63.9729181  -0.0344592  81.5230091  64.1995183   0.1542879  80.0381160
  66.4324464   0.1020652  84.5595696  66.0682671  -0.4248727  85.2708618
  67.2891580  -0.2880879  84.3862182  68.8305284   3.5927530  91.2222875
  68.5306007   4.4952569  91.1138682  68.4856344   3.3259714  92.0744028
  62.2817765   0.0441327  87.2559579  61.3568262  -0.0882459  87.4637271
  62.5302179   0.8235546  87.7529522  59.6426577  -0.3125399  88.0903369
  59.7718958  -0.0590920  89.0042780  58.9624028   0.2802309  87.7708024
  63.8126064  10.3571851  84.1893843  63.7350094  11.3079676  84.2682323
  63.2087707  10.0117723  84.8468769  64.5589666   0.3385169  96.4073177
  65.3004350   0.8770213  96.1308000  63.8526651   0.9651458  96.5644728
  70.0345006   2.4814310  95.0045338  70.4428362   2.0396720  94.2599971
  69.3122267   1.9066937  95.2579531  70.3573820   3.0415501  88.7597627
  69.7282683   3.2061215  88.0573695  69.9699482   3.4557110  89.5308591
  74.2363052   3.9769938  86.1141991  73.5514090   4.3568840  85.5639024
  74.3206901   4.5865265  86.8473939  71.4913984   1.6229897  92.7137334
  71.7030879   2.2661657  92.0371715  71.4443732   0.7892214  92.2459264
  65.9101782   2.7789909  86.0247712  66.3740128   3.0577612  85.2352335
  65.6458580   1.8773353  85.8420803  62.8025863   2.3261390  88.9627475
  63.3727220   2.7548659  88.3244960  63.3933975   2.0443975  89.6611661
  64.8470668  -1.0986939  82.8337277  65.5494711  -0.6465895  83.3011204
  64.5151297  -1.7403120  83.4617170  63.2951030  -2.5075182  97.2088487
  62.6649690  -1.8258902  97.4423883  63.1887118  -2.6192101  96.2641625
  58.5896002  -2.8403386  88.1354411  57.7995056  -2.5845858  87.6594521
  59.0807249  -2.0255048  88.2406451  72.6059812   4.5001853  90.8859692
  73.4277255   4.0982040  90.6042373  72.6022214   4.3970087  91.8375807
  60.5410747  -2.4758807  85.0937888  59.7441911  -2.3640113  85.6121383
  60.3136340  -2.1372155  84.2278778  66.3716415   4.0485896  93.0420402
  66.4360848   4.5106303  93.8778574  65.6627339   3.4183261  93.1702712
  56.8733705  -2.5872896  90.5669402  57.1241743  -1.7025886  90.8326978
  57.4093253  -2.7668294  89.7944493  66.0864433   5.7154004  82.9099382
  65.9510108   6.5605539  83.3384230  66.6274245   5.9173281  82.1465316
  59.5393830   3.2329442  83.4827308  60.0518351   4.0272692  83.6332872
  60.1916543   2.5355732  83.4160909  61.3488715   6.3495198  85.5650061
  61.5255343   7.2713163  85.3771045  62.1445548   6.0353617  85.9944441
  60.6341071  -1.6040170  95.4412224  60.5194587  -2.5054913  95.7419323
  59.7785589  -1.3576473  95.0897040  67.7132909   6.3377570  97.0399725
  67.2696763   5.5513949  96.7220629  68.3750123   6.5256721  96.3743615
  62.4720030   7.8673372  91.5660403  63.0227455   7.7390435  90.7937397
  61.6331506   8.1668261  91.2155296  69.8114147   6.6180370  95.0681126
  69.7932623   7.4389251  94.5761395  70.7334067   6.4934445  95.2931267
  66.2687201   4.1324500  95.9104634  66.8015538   3.3712788  95.6803942
  65.7401282   3.8398151  96.6528789  57.5042747   1.5618096  84.2586878
  58.3417969   1.9715104  84.0420586  57.6821015   0.6217538  84.2287072
  74.3741453   1.9825531  81.8823885  73.5970896   1.6436691  81.4379047
  75.0532934   1.9878154  81.2078850  67.6339914   3.2610492  83.4223446
  67.1061276   2.5263252  83.1096684  67.1327417   4.0385168  83.1763415
  72.6132760   1.4559513  88.5390493  71.9556434   2.1458774  88.6270621
  73.4173159   1.8455944  88.8824479  65.7792514   1.0790702  76.4258419
  64.8719576   0.8479956  76.6249568  66.2763546   0.2828322  76.6132401
  68.6860593   9.7888209  79.3455105  68.0122292  10.0919906  79.9540063
  69.0726415  10.5917290  78.9960562  66.9580748   1.1803297  80.9482409
  66.0491967   0.8962330  81.0454879  66.9875831   1.6002376  80.0885716
  72.1900015   4.7909887  84.7173577  71.7362342   3.9500797  84.7738767
  71.5593982   5.4271285  85.0548357  70.6332954   6.6286383  85.6523395
  70.9255929   7.1891440  84.9335761  71.1431575   6.9214944  86.4076554
  57.5268918  -1.0991189  84.9297612  57.3293318  -1.6921828  84.2048678
  56.9715582  -1.4038979  85.6473550  66.6556835   2.7212041  78.2870488
  66.2176265   2.0047900  77.8276125  67.3967276   2.9488156  77.7255579
  65.5966580   7.4066734  86.7416848  65.5542758   7.6327581  85.8125380
  66.5129278   7.1730109  86.8902649  74.7999330   3.0645765  89.3558078
  75.2335837   2.9721054  90.2041132  75.5130911   3.0403265  88.7178094
  63.7132380   4.2829763  86.5378811  64.5072979   3.7880084  86.3361386
  63.0024073   3.7547627  86.1746517  68.5327225   6.6647859  90.8891179
  68.5864247   7.2338795  91.6568894  67.6642006   6.8349744  90.5245216
  60.0215144  -1.5727155  82.6138564  59.0912732  -1.6342699  82.8308526
  60.1172616  -2.0951202  81.8175205  75.6614879   3.1069466  91.8890963
  75.8550769   4.0115276  92.1350238  75.5615498   2.6476885  92.7229548
  70.7229988   3.2576208  97.4631844  70.5715494   3.0286760  96.5461928
  70.7134668   4.2146810  97.4763189  67.4915324   0.8308121  92.4478110
  68.4207384   0.9819281  92.2747078  67.0706355   0.9192142  91.5926757
  66.2903656   4.8558785  90.2176648  66.1514742   4.4877570  91.0902586
  65.5018253   5.3706425  90.0460606  66.8851808   9.9567882  81.5602185
  67.0603564   9.4855925  82.3747807  66.1984596  10.5833648  81.7883445
  67.8408871   4.2340388  87.6065486  67.5058704   4.1941158  88.5023136
  67.3412817   3.5685104  87.1335896  61.8153115  -0.3591982  93.1318067
  61.6772913  -1.0911743  93.7329606  62.7258039  -0.4483082  92.8502255
  70.7768063   1.5796422  77.8802546  70.1597234   0.8543251  77.7835598
  70.3084552   2.3405783  77.5369620  64.4435416  -0.6472023  92.6201747
  65.1535035  -1.2878830  92.5788365  64.4004724  -0.3959128  93.5427927
  72.4322195   6.2895331  95.5408326  72.3734741   5.6054551  94.8738909
  72.8341713   7.0314321  95.0888952  61.4512894  13.1057245  88.3342045
  61.6909492  13.7375769  89.0121063  60.6082090  12.7545285  88.6207404
  72.4339602   4.2534915  93.7722306  71.5466381   3.9160837  93.8948704
  73.0038153   3.5217946  94.0091071  54.0868749   0.5859007  87.0965357
  54.7739789   0.2720737  86.5086372  53.9316878   1.4900371  86.8232608
  65.9640755   8.9136367  90.7383549  65.8910927   9.7191339  91.2502853
  65.5218149   9.1128333  89.9131570  65.7530535   8.1508137  84.2486370
  64.9698057   8.6929817  84.3424595  66.4523280   8.6682117  84.6480611
  68.4239439   8.8123201  92.8941707  69.1367411   9.4470666  92.8217609
  67.9329468   8.9087067  92.0781709  70.1456966   2.7174454  84.4658999
  69.2113245   2.8375916  84.2963703  70.3233634   1.8146921  84.2019009
  63.4751352   6.5617645  93.7147278  64.1760812   7.1954128  93.8676672
  63.0046467   6.9032376  92.9542917  71.6005748   4.9035594  81.9995185
  71.8765592   4.7892189  82.9089059  70.7310247   4.5053079  81.9607358
  68.2359812   9.1521945  85.6427999  68.4182207   8.3343601  86.1055751
  69.0592798   9.3689637  85.2052889  68.5701978   8.0790130  82.9043047
  69.0989744   7.5682585  82.2913209  68.8330197   7.7632661  83.7688580
  67.3240211  -0.1417937  98.0265866  66.6480848  -0.2423808  98.6968241
  68.1467845  -0.2978723  98.4901863  59.0719071   6.0954000  90.6478381
  59.6572507   5.3497688  90.7806285  58.8743909   6.4057956  91.5315045
  61.9257726   9.1305247  85.6640823  61.2568101   9.6151375  85.1804863
  61.7870595   9.3774467  86.5784202  53.6636725  -1.3340400  89.3682824
  53.7020825  -1.8676809  90.1619942  53.1577018  -1.8605195  88.7493801
  66.0662994  11.1648991  92.2623482  66.6181302  11.3280612  93.0272567
  66.4069188  11.7553428  91.5903507  70.9173869   5.9910248  98.1172136
  71.4613773   6.6040206  97.6227091  70.3360713   6.5489826  98.6339149
  57.2945303  -2.6076298  82.4436755  57.5898744  -3.5165620  82.3903809
  56.3933339  -2.6288559  82.1217758  69.2031382   9.1130966  89.2487164
  69.0782521   8.3120706  88.7398109  69.8610473   9.6077159  88.7601134
  71.2666290   6.9139986  90.8766714  70.3196626   6.7945337  90.8045041
  71.6149063   6.0262484  90.9592975  68.2712723   6.7092702  87.0771066
  68.1237686   5.7809410  87.2578636  69.0966217   6.7312793  86.5928141
  71.8746845   7.5321261  88.1635939  72.7993393   7.3264122  88.0260390
  71.7062148   7.2837662  89.0725280  63.0073459  -2.4783747  88.6473928
  62.8618040  -2.1643444  89.5398209  62.5298663  -1.8598846  88.0944827
  71.6642161   8.0506929  83.5198030  71.8379039   7.4853351  82.7671883
  72.1571053   8.8507823  83.3377520  57.4819121   0.0621598  91.5861589
  56.9372589   0.8381406  91.7181863  58.3598471   0.4092402  91.4280711
  72.6517334   7.3673693  80.6194929  73.3468238   7.9880386  80.8382243
  72.9940484   6.5169044  80.8947307  58.2685143  -0.8108506  94.4791746
  57.5266879  -0.6625871  95.0656376  57.9477887  -0.5500240  93.6158495
  74.5508757   4.8173399  82.1482259  75.0760081   5.1560671  81.4231579
  74.4631109   3.8820414  81.9645394  66.2128806   8.7307472  94.2772136
  66.5215932   8.4856619  95.1494836  67.0104288   8.9354111  93.7891006
  66.2349418  10.8845382  86.5077513  65.7954408  10.3921760  87.2010369
  66.9857535  10.3418349  86.2669588  58.7141757   7.0756923  86.5102141
  59.5399777   6.7760695  86.1300784  58.3635809   6.3064545  86.9591929
  63.6823290   6.4283391  88.5799814  63.0603299   5.7654096  88.2802042
  64.3528157   6.4544523  87.8973462  56.9150362   4.9943249  87.4691074
  56.0782270   4.5665423  87.2875075  56.8874007   5.1875692  88.4061865
  74.2402663   5.4506302  97.4533457  73.4498207   5.4330441  96.9137957
  74.0036018   5.9894596  98.2082494  74.3600538   2.2998769  94.7666186
  74.4098543   2.1348776  95.7081709  74.2514461   1.4326028  94.3764067
  63.2436797   4.9787314  82.0558275  63.3924917   5.6622779  81.4024948
  64.0503240   4.9592404  82.5707731  75.8618735   4.7195710  95.0108207
  75.5703543   5.0825691  95.8471668  75.2490866   4.0062718  94.8321539
  60.9989430   1.0052492  83.0619344  60.7535472   0.1014822  83.2599554
  61.1685344   1.0069642  82.1198822  66.7432202   7.4735445  79.5270022
  66.1706169   8.0925632  79.0740494  67.3164996   8.0234806  80.0609944
  69.9629462   7.7572595  80.6578604  70.8960135   7.6918156  80.8611480
  69.8752675   8.5928862  80.1993137  72.5917479   7.0738465  77.6182552
  72.5131110   6.7398329  78.5118310  73.4127146   7.5660233  77.6174024
  67.0117693   2.8614004  98.3286732  67.9320703   3.0392603  98.5226778
  66.9767276   1.9170049  98.1766431  56.2299858  -1.9447403  87.2540006
  55.9102643  -2.7982095  86.9614380  55.6833286  -1.7298825  88.0097974
  60.0079766   0.7715038  90.9709513  60.2265776   1.7032146  90.9897547
  60.4205540   0.4123013  91.7564317  56.0988118   1.6755509  89.2233128
  55.4051590   1.2609461  88.7103082  56.8461109   1.7176045  88.6266547
  64.7438901  -0.2254617  99.1777323  64.2605983   0.5745743  99.3841212
  64.8299840  -0.2146672  98.2244767  58.0124861   1.6073762  87.0999143
  57.9895549   1.7061450  86.1481026  58.3225497   2.4538913  87.4216309
  60.6712239   3.6649918  91.2145757  61.6255492   3.6333860  91.1475689
  60.4724762   3.2040541  92.0295983  61.2611621   2.2351034  93.7816555
  62.0804510   2.7295112  93.8051392  61.5348429   1.3183002  93.7534122
  59.0262468   9.2069537  88.2315955  58.8916935   8.4469938  87.6653953
  58.6094530   9.9310437  87.7644744  70.1621431   4.3906461  77.2392530
  70.8657281   4.5956463  77.8550186  69.4384079   4.9583222  77.5041614
  62.1831593  10.1038854  88.4434398  62.0663978  11.0484287  88.3413088
  61.3624040   9.8012416  88.8320197  72.0708128   4.8288990  79.2890990
  72.9053732   4.3970188  79.1068465  71.9092471   4.6571003  80.2167885
  71.7254020   1.3321103  80.6547330  71.6702824   1.1665374  79.7135774
  71.1000075   2.0397136  80.8109519  56.5146535  -3.4310833  94.4808752
  57.1605399  -3.9411879  94.9695977  56.3063686  -2.6942151  95.0552177
  69.0399927   3.6370015  99.9800892  69.9091087   3.8110667  99.6187527
  68.5606679   4.4564432  99.8576622  63.2086108  10.7567116  91.6590326
  64.1113354  10.7890726  91.9756821  62.9823478   9.8267567  91.6736662
  64.9639710   9.5098102  88.3200405  64.0135341   9.5099964  88.2064777
  65.2672196   8.7630837  87.8036439  80.6992403  15.3458641  89.3846167
  81.3370813  15.2265388  88.6809507  80.5813246  16.2939485  89.4434119
  77.5082109  15.2986069  89.3207692  77.1700621  15.1827134  88.4328227
  78.3771877  14.8977234  89.3008698  73.3668925  17.1521545  85.3104583
  72.8033790  17.0611482  84.5420871  73.2521320  16.3321450  85.7907075
  77.9901892  16.4520921  95.2793897  77.9790533  16.0573719  94.4074401
  78.1522532  15.7186993  95.8727669  70.9133357  18.6472737  88.1488803
  71.7054649  18.3063562  87.7335103  71.1530007  18.7567712  89.0690957
  78.9468484  20.8192513  80.6219048  78.2956463  21.4046593  80.2353062
  79.7412847  21.3498708  80.6814085  72.8724111  17.9081650  81.0206182
  73.6454987  17.3610637  80.8819058  73.2249510  18.7725900  81.2320643
  74.7109153  19.2358032  94.2273081  74.4199019  20.1403663  94.1119748
  75.3466138  19.2774560  94.9417151  75.6365360  16.6134881  90.8174441
  76.2328933  16.3890903  90.1031404  75.6940332  15.8719626  91.4199889
  75.2090389  14.0674316  78.6524632  75.4615909  13.5455838  77.8908095
  74.2714948  13.9040462  78.7551316  80.2533671  13.0710095  86.4599375
  81.0396761  12.6529518  86.1089792  80.5172376  13.9756187  86.6281024
  80.4243749  18.5082945  81.1588032  79.7889582  18.5817572  81.8708937
  80.0941155  19.0976544  80.4807111  85.6542099  13.0085328  87.3632354
  86.3867271  12.4384545  87.5970183  84.8981454  12.6206928  87.8038859
  74.9286677  15.9702422  80.8549007  74.8122936  15.2947326  81.5230091
  75.0388937  15.4834796  80.0381160  77.2718218  15.4312569  84.5595696
  76.9076426  14.9043190  85.2708618  78.1285334  15.0411038  84.3862182
  83.1767519   6.7206902  91.8226962  82.8450844   7.5902313  91.5988177
  82.5813132   6.4043186  92.5020993  76.9123705  10.4602469  79.5557045
  77.0798108  11.3282705  79.9227516  76.7220874  10.6229751  78.6318334
  79.6699039  18.9219448  91.2222875  79.3699762  19.8244487  91.1138682
  79.3250098  18.6551631  92.0744028  73.1211520  15.3733245  87.2559579
  72.1962016  15.2409459  87.4637271  73.3695933  16.1527464  87.7529522
  83.0696182  11.4401988  88.9020312  82.1613060  11.3717397  88.6079073
  83.0183778  11.9173933  89.7302138  76.8912926  12.9160127  80.5403712
  76.7712551  13.3617177  81.3789192  76.1965515  13.2645444  79.9817250
  70.4820331  15.0166518  88.0903369  70.6112712  15.2700997  89.0042780
  69.8017782  15.6094226  87.7708024  74.6519818  25.6863768  84.1893843
  74.5743848  26.6371593  84.2682323  74.0481462  25.3409641  84.8468769
  77.1437048  12.8591634  96.8455210  76.3670382  13.4185554  96.8358074
  77.7827611  13.3448417  97.3670080  84.9357829   9.6418427  90.6798186
  84.2932209   9.9350960  90.0337981  84.4312757   9.5271347  91.4851383
  82.5897992  13.3881600  81.3684046  83.5015848  13.6208987  81.1931743
  82.0807639  13.9718644  80.8059124  75.3983420  15.6677087  96.4073177
  76.1398105  16.2062131  96.1308000  74.6920406  16.2943376  96.5644728
  80.8738760  17.8106228  95.0045338  81.2822116  17.3688638  94.2599971
  80.1516022  17.2358855  95.2579531  77.2269830  12.7478834  92.3778895
  78.0731025  13.1718248  92.5213544  77.1668468  12.0912459  93.0717458
  81.1967575  18.3707418  88.7597627  80.5676437  18.5353132  88.0573695
  80.8093237  18.7849028  89.5308591  85.0756807  19.3061856  86.1141991
  84.3907845  19.6860757  85.5639024  85.1600656  19.9157183  86.8473939
  80.3769275  10.4083203  94.0360069  80.1330207  11.1625263  93.4994344
  80.6529206  10.7868550  94.8707316  82.3307738  16.9521815  92.7137334
  82.5424633  17.5953575  92.0371715  82.2837486  16.1184132  92.2459264
  79.9333967   9.5639636  89.6173906  79.0718446   9.8620889  89.9090644
  79.9596402   9.7810035  88.6854939  76.7495537  18.1081826  86.0247712
  77.2133882  18.3869529  85.2352335  76.4852335  17.2065271  85.8420803
  73.6419618  17.6553308  88.9627475  74.2120975  18.0840576  88.3244960
  74.2327729  17.3735893  89.6611661  75.6864423  14.2304979  82.8337277
  76.3888466  14.6826022  83.3011204  75.3545051  13.5888798  83.4617170
  74.1344784  12.8216735  97.2088487  73.5043445  13.5033016  97.4423883
  74.0280872  12.7099817  96.2641625  69.4289757  12.4888531  88.1354411
  68.6388811  12.7446060  87.6594521  69.9201004  13.3036869  88.2406451
  83.4453566  19.8293771  90.8859692  84.2671010  19.4273958  90.6042373
  83.4415969  19.7262005  91.8375807  71.3804502  12.8533111  85.0937888
  70.5835665  12.9651805  85.6121383  71.1530094  13.1919763  84.2278778
  77.2110170  19.3777814  93.0420402  77.2754602  19.8398221  93.8778574
  76.5021093  18.7475179  93.1702712  67.7127460  12.7419022  90.5669402
  67.9635498  13.6266032  90.8326978  68.2487008  12.5623623  89.7944493
  91.5359559  16.1732519  87.2344663  90.7823268  15.6039917  87.0788668
  91.6707100  16.1395183  88.1815298  76.9258187  21.0445921  82.9099382
  76.7903862  21.8897457  83.3384230  77.4668000  21.2465199  82.1465316
  73.4125527   7.1237501  99.5713738  73.0192472   6.5703700 100.2461382
  74.2291667   7.4348080  99.9620255  70.3787585  18.5621359  83.4827308
  70.8912105  19.3564610  83.6332872  71.0310297  17.8647650  83.4160909
  72.1882469  21.6787116  85.5650061  72.3649098  22.6005080  85.3771045
  72.9839303  21.3645535  85.9944441  76.3293488   8.5395380  97.1633994
  77.0703201   9.1402533  97.0838457  76.5611411   7.7973018  96.6052037
  71.4734826  13.7251748  95.4412224  71.3588341  12.8237005  95.7419323
  70.6179344  13.9715444  95.0897040  78.5526664  21.6669488  97.0399725
  78.1090518  20.8805866  96.7220629  79.2143877  21.8548638  96.3743615
  73.3113785  23.1965289  91.5660403  73.8621210  23.0682353  90.7937397
  72.4725261  23.4960178  91.2155296  80.6507902  21.9472288  95.0681126
  80.6326377  22.7681169  94.5761395  81.5727822  21.8226363  95.2931267
  77.1080956  19.4616417  95.9104634  77.6409293  18.7004705  95.6803942
  76.5795037  19.1690069  96.6528789  80.2750651   4.5676483  91.4398276
  79.9314920   5.4578125  91.3637387  80.6429613   4.3778141  90.5767861
  68.3436501  16.8910014  84.2586878  69.1811723  17.3007022  84.0420586
  68.5214769  15.9509456  84.2287072  80.2400934  14.5585094  79.9470711
  79.7247557  15.3289699  80.1859098  79.9678242  13.8850230  80.5703773
  77.8248045   9.4034795  85.0055949  76.9689641   9.0141645  84.8261588
  78.2374996   9.4826756  84.1455735  79.3547191   6.9381138  89.4047509
  78.8511987   6.9011273  88.5915314  79.6477798   7.8473881  89.4644166
  75.5990077   7.0219868  88.4113691  76.4643074   6.8262677  88.0519580
  75.6667586   6.7930220  89.3383048  85.2135208  17.3117449  81.8823885
  84.4364650  16.9728608  81.4379047  85.8926689  17.3170072  81.2078850
  80.0287237  12.4312186  81.7730492  79.7237372  12.7458336  82.6240635
  80.9817679  12.5093606  81.8157825  78.4733669  18.5902410  83.4223446
  77.9455030  17.8555169  83.1096684  77.9721171  19.3677086  83.1763415
  83.4526515  16.7851430  88.5390493  82.7950189  17.4750692  88.6270621
  84.2566914  17.1747862  88.8824479  73.2052396   9.2522076  85.7830058
  73.7796148   9.0297257  85.0503251  73.7923379   9.3210770  86.5358659
  82.2631973  15.1395803  86.5894434  82.7763855  15.7725795  87.0916144
  82.9133197  14.5396998  86.2237794  73.5321983  11.2826537  79.8025943
  72.6959296  11.6201224  80.1235218  73.3926753  11.1475517  78.8653080
  75.5075064   6.1263325  84.5105127  74.8539476   5.8112342  83.8861742
  75.4655538   5.5039065  85.2364950  76.6186269  16.4082620  76.4258419
  75.7113330  16.1771873  76.6249568  77.1157301  15.6120239  76.6132401
  79.5254348  25.1180127  79.3455105  78.8516046  25.4211824  79.9540063
  79.9120170  25.9209207  78.9960562  78.7412804  12.6145258  88.8352775
  77.8235366  12.8360205  88.6774463  79.1572948  12.6891569  87.9764482
  79.5247852  14.0136674  83.9655455  80.2719671  14.5258071  83.6562577
  79.7939442  13.6920727  84.8259849  77.7974502  16.5095215  80.9482409
  76.8885721  16.2254248  81.0454879  77.8269586  16.9294293  80.0885716
  83.0293770  20.1201804  84.7173577  82.5756097  19.2792714  84.7738767
  82.3987736  20.7563203  85.0548357  81.9726689  11.0493790  85.9474244
  81.2349446  10.5371177  86.2784487  82.2253463  10.6094172  85.1357521
  81.4726709  21.9578301  85.6523395  81.7649683  22.5183358  84.9335761
  81.9825329  22.2506862  86.4076554  68.3662673  14.2300729  84.9297612
  68.1687072  13.6370090  84.2048678  67.8109337  13.9252939  85.6473550
  76.3459396  14.1223835  87.0492205  76.4008006  13.1697672  86.9734681
  75.5350598  14.2783275  87.5333503  77.4950590  18.0503959  78.2870488
  77.0570020  17.3339817  77.8276125  78.2361031  18.2780073  77.7255579
  74.2851756  12.7400895  84.8082584  73.4719622  13.0395066  85.2147776
  74.7810750  12.3456584  85.5257066  76.4360334  22.7358652  86.7416848
  76.3936513  22.9619498  85.8125380  77.3523033  22.5022027  86.8902649
  79.8825968  13.2042720  93.6397477  80.2375356  13.4314193  94.4991943
  80.5298099  13.5361096  93.0174733  85.6123705  16.3261156  84.3446806
  85.4741603  16.5162752  83.4167996  85.2559924  17.0880538  84.8014858
  73.7765831  10.3119251  90.4243819  74.4165210  10.1708010  89.7266782
  72.9443361  10.0253764  90.0482421  85.6393084  18.3937683  89.3558078
  86.0729591  18.3012972  90.2041132  86.3524665  18.3695183  88.7178094
  74.5526135  19.6121681  86.5378811  75.3466733  19.1172001  86.3361386
  73.8417827  19.0839544  86.1746517  79.3720979  21.9939777  90.8891179
  79.4258002  22.5630713  91.6568894  78.5035761  22.1641662  90.5245216
  70.8608898  13.7564763  82.6138564  69.9306486  13.6949218  82.8308526
  70.9566370  13.2340716  81.8175205  70.7794447  10.2819576  85.2016805
  71.0401265  11.1964909  85.0925966  71.6011620   9.8144018  85.3513418
  72.2519373  11.6957333  92.3715630  72.9242426  11.4874695  91.7228279
  71.4249159  11.4979419  91.9320862  86.5008634  18.4361383  91.8890963
  86.6944524  19.3407194  92.1350238  86.4009252  17.9768802  92.7229548
  78.1544945   8.3219274  94.3881291  77.5072860   9.0209223  94.2945767
  78.9245960   8.7555418  94.7557539  81.5623743  18.5868126  97.4631844
  81.4109249  18.3578678  96.5461928  81.5528422  19.5438727  97.4763189
  78.3309079  16.1600039  92.4478110  79.2601139  16.3111198  92.2747078
  77.9100109  16.2484059  91.5926757  77.1297411  20.1850703  90.2176648
  76.9908496  19.8169488  91.0902586  76.3412007  20.6998343  90.0460606
  77.7245563  25.2859800  81.5602185  77.8997318  24.8147843  82.3747807
  77.0378351  25.9125566  81.7883445  78.6802626  19.5632306  87.6065486
  78.3452459  19.5233076  88.5023136  78.1806572  18.8977022  87.1335896
  72.6546870  14.9699936  93.1318067  72.5166668  14.2380175  93.7329606
  73.5651793  14.8808836  92.8502255  81.6161818  16.9088340  77.8802546
  80.9990988  16.1835168  77.7835598  81.1478306  17.6697700  77.5369620
  75.2829171  14.6819895  92.6201747  75.9928789  14.0413087  92.5788365
  75.2398479  14.9332790  93.5427927  83.2715949  21.6187248  95.5408326
  83.2128495  20.9346469  94.8738909  83.6735468  22.3606239  95.0888952
  73.9958105  11.6685113  94.4397386  73.4595462  11.2175851  95.0918982
  73.4074813  11.8031022  93.6967850  72.2906648  28.4349162  88.3342045
  72.5303246  29.0667686  89.0121063  71.4475845  28.0837202  88.6207404
  73.4060363  11.1273764  77.0023850  72.5289830  11.0062565  76.6386096
  73.8818117  10.3359843  76.7502738  83.2733356  19.5826832  93.7722306
  82.3860135  19.2452754  93.8948704  83.8431908  18.8509864  94.0091071
  64.9262504  15.9150924  87.0965357  65.6133543  15.6012654  86.5086372
  64.7710632  16.8192289  86.8232608  69.7297226  10.8041121  91.5250381
  69.6455414  10.1966790  90.7900791  68.9079932  11.2950139  91.5259877
  76.8034510  24.2428285  90.7383549  76.7304681  25.0483256  91.2502853
  76.3611903  24.4420251  89.9131570  76.5924290  23.4800055  84.2486370
  75.8091811  24.0221735  84.3424595  77.2917035  23.9974034  84.6480611
  79.9020940   9.2894684  86.8920576  80.3989639   8.5364647  86.5721646
  79.1307921   9.3259001  86.3263785  87.7550697  14.9935050  88.5338867
  87.7440573  15.8759765  88.1632800  86.8868076  14.6406601  88.3393404
  79.2633193  24.1415119  92.8941707  79.9761166  24.7762584  92.8217609
  78.7723222  24.2378985  92.0781709  80.9850720  18.0466371  84.4658999
  80.0506999  18.1667834  84.2963703  81.1627389  17.1438838  84.2019009
  76.4855908  11.4312067  86.6192260  76.1153696  10.8783108  87.3073166
  76.9815001  10.8270201  86.0667260  84.3723272  13.8883691  85.0009033
  84.8383724  14.7211682  84.9269336  84.8230772  13.4228672  85.7054292
  74.3145107  21.8909562  93.7147278  75.0154566  22.5246045  93.8676672
  73.8440222  22.2324294  92.9542917  82.4399503  20.2327512  81.9995185
  82.7159347  20.1184107  82.9089059  81.5704002  19.8344997  81.9607358
  82.3439934   6.2564278  89.0399935  81.4303014   6.4868505  89.2082141
  82.7733036   6.3402722  89.8913967  82.1146393  14.4454170  91.5399829
  81.4617843  14.6930077  90.8852281  82.4926773  13.6318308  91.2062306
  79.0753567  24.4813863  85.6427999  79.2575961  23.6635519  86.1055751
  79.8986553  24.6981555  85.2052889  79.4095732  23.4082048  82.9043047
  79.9383499  22.8974503  82.2913209  79.6723952  23.0924578  83.7688580
  78.1633966  15.1873981  98.0265866  77.4874603  15.0868110  98.6968241
  78.9861600  15.0313195  98.4901863  69.9112825  21.4245917  90.6478381
  70.4966262  20.6789605  90.7806285  69.7137663  21.7349874  91.5315045
  72.7651480  24.4597165  85.6640823  72.0961855  24.9443292  85.1804863
  72.6264350  24.7066385  86.5784202  64.5030480  13.9951518  89.3682824
  64.5414579  13.4615108  90.1619942  63.9970773  13.4686723  88.7493801
  76.9056749  26.4940908  92.2623482  77.4575057  26.6572530  93.0272567
  77.2462942  27.0845346  91.5903507  71.8821242   8.8416058  92.8645366
  71.9462569   9.7030889  92.4522764  71.8188362   8.2290060  92.1317725
  71.3573515  10.9139191  96.5118401  71.9845553  10.5316268  97.1255925
  70.5001433  10.6953393  96.8774093  81.7567623  21.3202166  98.1172136
  82.3007527  21.9332124  97.6227091  81.1754468  21.8781744  98.6339149
  68.1339057  12.7215620  82.4436755  68.4292498  11.8126298  82.3903809
  67.2327093  12.7003359  82.1217758  80.0425136  24.4422884  89.2487164
  79.9176276  23.6412624  88.7398109  80.7004227  24.9369077  88.7601134
  71.6633304  10.7971616  88.4264304  70.9419890  11.4107584  88.2871777
  72.4526560  11.3329381  88.3480950  82.1060044  22.2431904  90.8766714
  81.1590380  22.1237255  90.8045041  82.4542818  21.3554402  90.9592975
  74.4659618   8.1326043  94.7004956  74.9894020   8.3788339  95.4631265
  74.2471951   8.9646078  94.2808093  69.8626899  10.4029717  82.5676081
  69.5339605   9.5227096  82.3851187  70.2166270  10.3477386  83.4552470
  79.1106478  22.0384620  87.0771066  78.9631440  21.1101327  87.2578636
  79.9359971  22.0604711  86.5928141  72.9768722  10.6902687  82.9351558
  73.3164795  11.2188608  82.2130167  73.4240843  11.0283093  83.7110125
  82.7140600  22.8613179  88.1635939  83.6387147  22.6556040  88.0260390
  82.5455903  22.6129580  89.0725280  75.6712163   9.0739738  92.3854626
  75.3308983   8.2747551  92.7875306  74.9651169   9.3741449  91.8131460
  76.3228635   6.1589050  90.8381949  77.1454704   5.6849528  90.7160840
  76.5666698   6.9379534  91.3380636  74.9636869   9.1877309  81.1344851
  75.6845232   9.5658562  80.6308568  74.3402173   9.9066186  81.2379829
  79.1067992   9.8922458  82.0703183  79.3231606  10.7747096  81.7692012
  78.6262059   9.5008671  81.3408825  73.8467213  12.8508171  88.6473928
  73.7011794  13.1648474  89.5398209  73.3692417  13.4693071  88.0944827
  75.7063596   9.8410719  88.6954818  75.6925165   8.9451812  88.3587115
  76.4236024   9.8481383  89.3293104  77.5589727  10.2748059  90.7407945
  77.3007505  11.1965130  90.7392275  77.0274767   9.8778494  91.4308409
  82.5035916  23.3798846  83.5198030  82.6772793  22.8145269  82.7671883
  82.9964807  24.1799741  83.3377520  68.3212876  15.3913515  91.5861589
  67.7766344  16.1673323  91.7181863  69.1992225  15.7384320  91.4280711
  75.1100492   8.7225099  83.9642388  75.2316403   7.7941745  84.1633275
  74.8202535   8.7363785  83.0520703  77.9791683   6.4080010  87.1009107
  78.0013379   6.4719343  86.1461087  78.3959742   5.5684518  87.2949614
  88.3575307  16.1435269  85.1388330  88.8006453  15.3942594  84.7407453
  87.4801817  16.1345406  84.7562062  83.4911088  22.6965611  80.6194929
  84.1861993  23.3172303  80.8382243  83.8334238  21.8460962  80.8947307
  69.1078897  14.5183412  94.4791746  68.3660634  14.6666047  95.0656376
  68.7871642  14.7791677  93.6158495  85.3902511  20.1465316  82.1482259
  85.9153836  20.4852589  81.4231579  85.3024864  19.2112332  81.9645394
  77.0522560  24.0599390  94.2772136  77.3609687  23.8148537  95.1494836
  77.8498042  24.2646028  93.7891006  77.0743172  26.2137299  86.5077513
  76.6348162  25.7213678  87.2010369  77.8251289  25.6710267  86.2669588
  69.5535511  22.4048840  86.5102141  70.3793531  22.1052612  86.1300784
  69.2029563  21.6356463  86.9591929  74.5217044  21.7575309  88.5799814
  73.8997054  21.0946014  88.2802042  75.1921911  21.7836440  87.8973462
  67.7544116  20.3235167  87.4691074  66.9176025  19.8957341  87.2875075
  67.7267762  20.5167610  88.4061865  74.5941572  10.2357097  98.1732320
  74.6429727  11.1119219  97.7910090  75.1364086   9.6934490  97.6003963
  85.0796417  20.7798220  97.4533457  84.2891961  20.7622359  96.9137957
  84.8429772  21.3186514  98.2082494  85.1994293  17.6290686  94.7666186
  85.2492297  17.4640694  95.7081709  85.0908216  16.7617945  94.3764067
  74.0830551  20.3079232  82.0558275  74.2318672  20.9914696  81.4024948
  74.8896995  20.2884322  82.5707731  82.4898055  13.6121614  96.0825493
  83.3907918  13.4728079  95.7909490  82.5646029  13.7776069  97.0223670
  76.8240860  10.9888469  94.9278679  75.9544170  11.2822035  94.6561267
  77.0600341  11.5728914  95.6485943  86.7012489  20.0487628  95.0108207
  86.4097298  20.4117608  95.8471668  86.0884621  19.3354636  94.8321539
  87.9008172  17.6140507  87.5310778  88.7355063  18.0530312  87.6948338
  88.0367300  17.1379161  86.7119023  84.9499678  15.1720242  93.4788265
  85.4253799  15.3647889  92.6707117  84.0265243  15.2279428  93.2331649
  71.8383184  16.3344410  83.0619344  71.5929226  15.4306740  83.2599554
  72.0079099  16.3361560  82.1198822  79.5279894   7.2068086  92.4444099
  80.0461838   7.9429113  92.1190588  79.1735027   7.5132079  93.2790858
  71.1078832  12.0672767  80.5605505  70.4148077  12.1417122  79.9045541
  70.8630584  11.3033111  81.0827022  77.5825957  22.8027362  79.5270022
  77.0099924  23.4217549  79.0740494  78.1558750  23.3526724  80.0609944
  83.6501347  12.0486002  91.7116571  84.6018770  12.1484100  91.7328795
  83.4804797  11.2564271  92.2214655  81.6715726   9.1341586  91.8975972
  81.0765658   9.4146598  91.2022461  81.3865423   9.6235487  92.6692713
  80.8023217  23.0864512  80.6578604  81.7353890  23.0210074  80.8611480
  80.7146429  23.9220779  80.1993137  83.4311233  22.4030383  77.6182552
  83.3524865  22.0690246  78.5118310  84.2520900  22.8952151  77.6174024
  86.1289424  15.2692122  90.8258871  86.0965745  14.3308123  91.0118554
  86.7390048  15.3476159  90.0924696  77.9672755  14.1388175  76.8686075
  78.9131860  14.0094383  76.9374493  77.5887000  13.4002837  77.3455503
  86.2783913  12.0603166  90.8717154  85.7622962  11.2761622  90.6847083
  87.1623861  11.7321882  91.0363673  83.9394640   5.8044181  86.8312967
  83.7419461   5.4959269  87.7156298  84.5494345   6.5305820  86.9610896
  91.9465974  16.3308129  89.9664907  92.6769363  16.0693417  90.5272611
  91.3372920  15.5936851  90.0066975  90.0281271  14.4715992  90.5639359
  89.3014435  14.3371956  89.9555850  89.6128558  14.7792820  91.3696077
  77.8511448  18.1905921  98.3286732  78.7714457  18.3684520  98.5226778
  77.8161031  17.2461967  98.1766431  76.1515672  12.0638151  76.8040960
  75.2447128  11.7671264  76.8803674  76.4291653  11.7667970  75.9375246
  67.0693613  13.3844515  87.2540006  66.7496397  12.5309823  86.9614380
  66.5227041  13.5993093  88.0097974  70.8473520  16.1006956  90.9709513
  71.0659530  17.0324064  90.9897547  71.2599294  15.7414930  91.7564317
  77.7677738   6.6075041  82.9585201  76.9578466   6.2622126  83.3340447
  78.4562155   6.2982585  83.5472813  79.6968286   5.6853088  84.5809498
  80.2499325   6.1048541  85.2399521  79.9338373   4.7588836  84.6232454
  75.7201386  11.6740162 100.3612262  75.6198113  12.6234519 100.2924353
  75.5022928  11.3458401  99.4888332  74.9214457   8.9225087  76.9452939
  75.7833621   9.2479985  77.2048756  75.1064801   8.1356583  76.4326005
  66.9381873  17.0047426  89.2233128  66.2445344  16.5901379  88.7103082
  67.6854864  17.0467963  88.6266547  83.0747094   7.7953613  84.0888162
  82.4945763   8.4538417  83.7066215  82.8083026   6.9730958  83.6775580
  81.5250660   7.1958671  86.2909482  82.0250438   7.3075205  85.4823801
  82.1686268   6.8919724  86.9310291  75.5832656  15.1037300  99.1777323
  75.0999737  15.9037661  99.3841212  75.6693595  15.1145245  98.2244767
  68.8518615  16.9365680  87.0999143  68.8289303  17.0353367  86.1481026
  69.1619252  17.7830831  87.4216309  71.5105993  18.9941835  91.2145757
  72.4649247  18.9625778  91.1475689  71.3118517  18.5332459  92.0295983
  72.1005375  17.5642951  93.7816555  72.9198264  18.0587030  93.8051392
  72.3742183  16.6474919  93.7534122  81.8571972   9.9553704  83.1444510
  80.9697827  10.2403354  82.9264705  82.2725961   9.7947467  82.2971787
  85.2086508   9.9800225  86.8598850  85.9846898  10.4696677  87.1323466
  84.4834642  10.4058279  87.3170719  87.6459066  10.6927844  87.9172790
  88.2403557  10.4523580  87.2066098  87.7185650   9.9734974  88.5446327
  69.8656222  24.5361455  88.2315955  69.7310690  23.7761856  87.6653953
  69.4488284  25.2602355  87.7644744  81.0015185  19.7198378  77.2392530
  81.7051035  19.9248381  77.8550186  80.2777834  20.2875140  77.5041614
  81.8312995  15.4708239  83.3594801  81.7748197  15.9276791  82.5202433
  82.3841338  14.7098924  83.1817643  85.6417801  11.2597971  84.1844920
  85.3854735  10.8594607  85.0153128  85.0170669  11.9741765  84.0595059
  89.9530139  13.9994045  86.6916211  89.3929697  14.0687234  87.4647773
  89.3473642  13.8235029  85.9715708  73.0225348  25.4330772  88.4434398
  72.9057732  26.3776204  88.3413088  72.2017794  25.1304333  88.8320197
  82.9101882  20.1580907  79.2890990  83.7447486  19.7262106  79.1068465
  82.7486225  19.9862921  80.2167885  82.5647775  16.6613021  80.6547330
  82.5096578  16.4957292  79.7135774  81.9393830  17.3689054  80.8109519
  67.3540290  11.8981085  94.4808752  67.9999153  11.3880039  94.9695977
  67.1457441  12.6349767  95.0552177  79.8793682  18.9661933  99.9800892
  80.7484841  19.1402585  99.6187527  79.4000433  19.7856349  99.8576622
  75.8743900   6.1621130  80.2332648  75.8622570   7.1062970  80.3900919
  76.7667322   5.9791275  79.9392109  74.0479862  26.0859034  91.6590326
  74.9507109  26.1182644  91.9756821  73.8217232  25.1559485  91.6736662
  75.8033464  24.8390020  88.3200405  74.8529095  24.8391882  88.2064777
  76.1065950  24.0922755  87.8036439  71.6937781   9.0448702  98.5783766
  72.5569242   8.6885507  98.7887091  71.1203191   8.7062597  99.2659170
  91.5386157  30.6750559  89.3846167  92.1764567  30.5557306  88.6809507
  91.4207000  31.6231402  89.4434119  88.3475864  30.6277987  89.3207692
  88.0094375  30.5119051  88.4328227  89.2165632  30.2269152  89.3008698
  84.2062679  32.4813463  85.3104583  83.6427545  32.3903400  84.5420871
  84.0915075  31.6613367  85.7907075  88.8295647  31.7812838  95.2793897
  88.8184288  31.3865637  94.4074401  88.9916286  31.0478911  95.8727669
  81.7527111  33.9764655  88.1488803  82.5448403  33.6355479  87.7335103
  81.9923762  34.0859630  89.0690957  89.7862238  36.1484431  80.6219048
  89.1350218  36.7338511  80.2353062  90.5806601  36.6790626  80.6814085
  83.7117865  33.2373568  81.0206182  84.4848741  32.6902555  80.8819058
  84.0643264  34.1017817  81.2320643  85.5502908  34.5649950  94.2273081
  85.2592774  35.4695581  94.1119748  86.1859892  34.6066478  94.9417151
  86.4759115  31.9426799  90.8174441  87.0722687  31.7182821  90.1031404
  86.5334086  31.2011544  91.4199889  86.0484143  29.3966234  78.6524632
  86.3009664  28.8747755  77.8908095  85.1108702  29.2332379  78.7551316
  91.0927426  28.4002012  86.4599375  91.8790515  27.9821436  86.1089792
  91.3566130  29.3048105  86.6281024  91.2637503  33.8374863  81.1588032
  90.6283336  33.9109489  81.8708937  90.9334910  34.4268462  80.4807111
  96.4935853  28.3377246  87.3632354  97.2261025  27.7676462  87.5970183
  95.7375209  27.9498846  87.8038859  85.7680432  31.2994340  80.8549007
  85.6516690  30.6239243  81.5230091  85.8782692  30.8126714  80.0381160
  88.1111973  30.7604487  84.5595696  87.7470180  30.2335108  85.2708618
  88.9679089  30.3702956  84.3862182  94.0161273  22.0498820  91.8226962
  93.6844598  22.9194231  91.5988177  93.4206887  21.7335104  92.5020993
  87.7517460  25.7894387  79.5557045  87.9191862  26.6574623  79.9227516
  87.5614629  25.9521668  78.6318334  90.5092793  34.2511366  91.2222875
  90.2093516  35.1536404  91.1138682  90.1643853  33.9843549  92.0744028
  83.9605274  30.7025163  87.2559579  83.0355771  30.5701377  87.4637271
  84.2089688  31.4819382  87.7529522  93.9089937  26.7693906  88.9020312
  93.0006814  26.7009314  88.6079073  93.8577533  27.2465851  89.7302138
  87.7306681  28.2452044  80.5403712  87.6106306  28.6909095  81.3789192
  87.0359269  28.5937362  79.9817250  81.3214086  30.3458436  88.0903369
  81.4506467  30.5992915  89.0042780  80.6411537  30.9386144  87.7708024
  85.4913573  41.0155686  84.1893843  85.4137602  41.9663511  84.2682323
  84.8875216  40.6701559  84.8468769  87.9830803  28.1883551  96.8455210
  87.2064137  28.7477472  96.8358074  88.6221366  28.6740334  97.3670080
  95.7751583  24.9710344  90.6798186  95.1325963  25.2642877  90.0337981
  95.2706512  24.8563265  91.4851383  93.4291747  28.7173517  81.3684046
  94.3409603  28.9500904  81.1931743  92.9201394  29.3010562  80.8059124
  86.2377175  30.9969005  96.4073177  86.9791859  31.5354049  96.1308000
  85.5314160  31.6235294  96.5644728  91.7132515  33.1398145  95.0045338
  92.1215871  32.6980556  94.2599971  90.9909776  32.5650773  95.2579531
  88.0663585  28.0770752  92.3778895  88.9124780  28.5010166  92.5213544
  88.0062222  27.4204376  93.0717458  92.0361329  33.6999336  88.7597627
  91.4070192  33.8645050  88.0573695  91.6486991  34.1140945  89.5308591
  95.9150561  34.6353774  86.1141991  95.2301599  35.0152675  85.5639024
  95.9994410  35.2449100  86.8473939  91.2163030  25.7375120  94.0360069
  90.9723962  26.4917181  93.4994344  91.4922960  26.1160468  94.8707316
  93.1701493  32.2813733  92.7137334  93.3818388  32.9245493  92.0371715
  93.1231241  31.4476049  92.2459264  90.7727722  24.8931553  89.6173906
  89.9112201  25.1912807  89.9090644  90.7990156  25.1101952  88.6854939
  87.5889291  33.4373744  86.0247712  88.0527637  33.7161447  85.2352335
  87.3246089  32.5357189  85.8420803  84.4813372  32.9845226  88.9627475
  85.0514729  33.4132494  88.3244960  85.0721484  32.7027810  89.6611661
  86.5258177  29.5596896  82.8337277  87.2282220  30.0117940  83.3011204
  86.1938806  28.9180715  83.4617170  84.9738539  28.1508653  97.2088487
  84.3437199  28.8324934  97.4423883  84.8674627  28.0391735  96.2641625
  80.2683511  27.8180449  88.1354411  79.4782565  28.0737978  87.6594521
  80.7594758  28.6328787  88.2406451  94.2847321  35.1585688  90.8859692
  95.1064764  34.7565875  90.6042373  94.2809723  35.0553922  91.8375807
  82.2198256  28.1825028  85.0937888  81.4229420  28.2943723  85.6121383
  81.9923849  28.5211680  84.2278778  88.0503924  34.7069731  93.0420402
  88.1148357  35.1690139  93.8778574  87.3414848  34.0767096  93.1702712
  78.5521214  28.0710939  90.5669402  78.8029252  28.9557949  90.8326978
  79.0880762  27.8915541  89.7944493 102.3753314  31.5024437  87.2344663
 101.6217022  30.9331835  87.0788668 102.5100855  31.4687101  88.1815298
  87.7651942  36.3737839  82.9099382  87.6297616  37.2189375  83.3384230
  88.3061754  36.5757117  82.1465316  84.2519281  22.4529419  99.5713738
  83.8586227  21.8995617 100.2461382  85.0685422  22.7639997  99.9620255
  81.2181339  33.8913277  83.4827308  81.7305860  34.6856527  83.6332872
  81.8704052  33.1939567  83.4160909  83.0276224  37.0079033  85.5650061
  83.2042852  37.9296998  85.3771045  83.8233057  36.6937453  85.9944441
  87.1687242  23.8687298  97.1633994  87.9096956  24.4694451  97.0838457
  87.4005165  23.1264936  96.6052037  82.3128580  29.0543665  95.4412224
  82.1982095  28.1528922  95.7419323  81.4573098  29.3007362  95.0897040
  89.3920418  36.9961405  97.0399725  88.9484272  36.2097784  96.7220629
  90.0537632  37.1840556  96.3743615  84.1507539  38.5257207  91.5660403
  84.7014964  38.3974270  90.7937397  83.3119015  38.8252096  91.2155296
  91.4901656  37.2764205  95.0681126  91.4720132  38.0973086  94.5761395
  92.4121576  37.1518281  95.2931267  87.9474710  34.7908335  95.9104634
  88.4803047  34.0296623  95.6803942  87.4188791  34.4981987  96.6528789
  91.1144405  19.8968401  91.4398276  90.7708675  20.7870043  91.3637387
  91.4823368  19.7070058  90.5767861  79.1830256  32.2201931  84.2586878
  80.0205478  32.6298940  84.0420586  79.3608524  31.2801373  84.2287072
  91.0794688  29.8877012  79.9470711  90.5641311  30.6581617  80.1859098
  90.8071996  29.2142148  80.5703773  88.6641799  24.7326713  85.0055949
  87.8083395  24.3433563  84.8261588  89.0768751  24.8118674  84.1455735
  90.1940946  22.2673056  89.4047509  89.6905741  22.2303191  88.5915314
  90.4871553  23.1765799  89.4644166  86.4383832  22.3511786  88.4113691
  87.3036828  22.1554594  88.0519580  86.5061340  22.1222138  89.3383048
  96.0528962  32.6409367  81.8823885  95.2758405  32.3020526  81.4379047
  96.7320443  32.6461990  81.2078850  90.8680991  27.7604104  81.7730492
  90.5631127  28.0750253  82.6240635  91.8211433  27.8385524  81.8157825
  89.3127423  33.9194327  83.4223446  88.7848785  33.1847087  83.1096684
  88.8114926  34.6969004  83.1763415  94.2920269  32.1143348  88.5390493
  93.6343943  32.8042609  88.6270621  95.0960668  32.5039780  88.8824479
  84.0446151  24.5813994  85.7830058  84.6189903  24.3589175  85.0503251
  84.6317133  24.6502688  86.5358659  93.1025728  30.4687721  86.5894434
  93.6157610  31.1017712  87.0916144  93.7526952  29.8688916  86.2237794
  84.3715738  26.6118455  79.8025943  83.5353050  26.9493141  80.1235218
  84.2320507  26.4767434  78.8653080  86.3468818  21.4555243  84.5105127
  85.6933231  21.1404260  83.8861742  86.3049292  20.8330983  85.2364950
  87.4580023  31.7374538  76.4258419  86.5507085  31.5063791  76.6249568
  87.9551055  30.9412157  76.6132401  90.3648102  40.4472045  79.3455105
  89.6909801  40.7503742  79.9540063  90.7513924  41.2501125  78.9960562
  89.5806559  27.9437176  88.8352775  88.6629120  28.1652123  88.6774463
  89.9966702  28.0183487  87.9764482  90.3641606  29.3428592  83.9655455
  91.1113425  29.8549989  83.6562577  90.6333196  29.0212645  84.8259849
  88.6368257  31.8387133  80.9482409  87.7279476  31.5546165  81.0454879
  88.6663340  32.2586211  80.0885716  93.8687524  35.4493722  84.7173577
  93.4149851  34.6084632  84.7738767  93.2381491  36.0855120  85.0548357
  92.8120444  26.3785708  85.9474244  92.0743200  25.8663094  86.2784487
  93.0647217  25.9386090  85.1357521  92.3120463  37.2870219  85.6523395
  92.6043438  37.8475276  84.9335761  92.8219084  37.5798780  86.4076554
  92.9132071  19.1561960  86.5416014  93.2190948  18.2959323  86.2541929
  93.6384676  19.7479580  86.3415008  79.2056427  29.5592647  84.9297612
  79.0080827  28.9662007  84.2048678  78.6503091  29.2544857  85.6473550
  87.1853151  29.4515753  87.0492205  87.2401760  28.4989590  86.9734681
  86.3744353  29.6075192  87.5333503  88.3344344  33.3795876  78.2870488
  87.8963774  32.6631735  77.8276125  89.0754785  33.6071991  77.7255579
  85.1245511  28.0692813  84.8082584  84.3113376  28.3686983  85.2147776
  85.6204505  27.6748502  85.5257066  87.2754088  38.0650570  86.7416848
  87.2330267  38.2911416  85.8125380  88.1916787  37.8313944  86.8902649
  90.7219722  28.5334637  93.6397477  91.0769110  28.7606110  94.4991943
  91.3691854  28.8653014  93.0174733  96.4517459  31.6553073  84.3446806
  96.3135358  31.8454669  83.4167996  96.0953678  32.4172456  84.8014858
  84.6159585  25.6411168  90.4243819  85.2558965  25.4999927  89.7266782
  83.7837116  25.3545682  90.0482421  96.4786839  33.7229600  89.3558078
  96.9123345  33.6304889  90.2041132  97.1918420  33.6987101  88.7178094
  85.3919889  34.9413599  86.5378811  86.1860488  34.4463919  86.3361386
  84.6811582  34.4131462  86.1746517  90.2114734  37.3231694  90.8891179
  90.2651756  37.8922631  91.6568894  89.3429515  37.4933579  90.5245216
  81.7002653  29.0856681  82.6138564  80.7700241  29.0241136  82.8308526
  81.7960125  28.5632633  81.8175205  81.6188202  25.6111493  85.2016805
  81.8795019  26.5256827  85.0925966  82.4405374  25.1435936  85.3513418
  83.0913127  27.0249251  92.3715630  83.7636181  26.8166613  91.7228279
  82.2642914  26.8271337  91.9320862  97.3402388  33.7653301  91.8890963
  97.5338278  34.6699111  92.1350238  97.2403007  33.3060720  92.7229548
  88.9938699  23.6511191  94.3881291  88.3466614  24.3501141  94.2945767
  89.7639715  24.0847335  94.7557539  92.4017497  33.9160044  97.4631844
  92.2503003  33.6870595  96.5461928  92.3922177  34.8730645  97.4763189
  89.1702833  31.4891956  92.4478110  90.0994893  31.6403116  92.2747078
  88.7493863  31.5775977  91.5926757  87.9691165  35.5142621  90.2176648
  87.8302251  35.1461405  91.0902586  87.1805761  36.0290260  90.0460606
  88.5639317  40.6151717  81.5602185  88.7391073  40.1439760  82.3747807
  87.8772105  41.2417483  81.7883445  89.5196380  34.8924223  87.6065486
  89.1846213  34.8524993  88.5023136  89.0200326  34.2268939  87.1335896
  83.4940624  30.2991854  93.1318067  83.3560422  29.5672092  93.7329606
  84.4045548  30.2100754  92.8502255  92.4555572  32.2380258  77.8802546
  91.8384743  31.5127086  77.7835598  91.9872061  32.9989618  77.5369620
  86.1222925  30.0111813  92.6201747  86.8322544  29.3705005  92.5788365
  86.0792233  30.2624708  93.5427927  94.1109704  36.9479166  95.5408326
  94.0522250  36.2638386  94.8738909  94.5129222  37.6898156  95.0888952
  84.8351859  26.9977031  94.4397386  84.2989216  26.5467769  95.0918982
  84.2468567  27.1322940  93.6967850  83.1300403  43.7641080  88.3342045
  83.3697001  44.3959604  89.0121063  82.2869599  43.4129120  88.6207404
  84.2454118  26.4565682  77.0023850  83.3683584  26.3354483  76.6386096
  84.7211871  25.6651760  76.7502738  94.1127111  34.9118750  93.7722306
  93.2253890  34.5744672  93.8948704  94.6825662  34.1801781  94.0091071
  75.7656258  31.2442842  87.0965357  76.4527298  30.9304572  86.5086372
  75.6104387  32.1484206  86.8232608  80.5690980  26.1333038  91.5250381
  80.4849169  25.5258708  90.7900791  79.7473687  26.6242057  91.5259877
  87.6428264  39.5720202  90.7383549  87.5698436  40.3775174  91.2502853
  87.2005657  39.7712168  89.9131570  87.4318044  38.8091972  84.2486370
  86.6485566  39.3513653  84.3424595  88.1310789  39.3265952  84.6480611
  90.7414694  24.6186602  86.8920576  91.2383394  23.8656564  86.5721646
  89.9701676  24.6550919  86.3263785  98.5944452  30.3226967  88.5338867
  98.5834328  31.2051683  88.1632800  97.7261831  29.9698518  88.3393404
  90.1026948  39.4707036  92.8941707  90.8154920  40.1054501  92.8217609
  89.6116977  39.5670902  92.0781709  91.8244475  33.3758289  84.4658999
  90.8900754  33.4959752  84.2963703  92.0021143  32.4730756  84.2019009
  87.3249663  26.7603985  86.6192260  86.9547450  26.2075025  87.3073166
  87.8208755  26.1562118  86.0667260  95.2117026  29.2175608  85.0009033
  95.6777478  30.0503600  84.9269336  95.6624527  28.7520590  85.7054292
  85.1538861  37.2201480  93.7147278  85.8548321  37.8537963  93.8676672
  84.6833976  37.5616211  92.9542917  93.2793257  35.5619430  81.9995185
  93.5553101  35.4476024  82.9089059  92.4097756  35.1636915  81.9607358
  93.1833689  21.5856195  89.0399935  92.2696769  21.8160422  89.2082141
  93.6126790  21.6694640  89.8913967  92.9540147  29.7746087  91.5399829
  92.3011598  30.0221995  90.8852281  93.3320527  28.9610226  91.2062306
  89.9147321  39.8105781  85.6427999  90.0969716  38.9927437  86.1055751
  90.7380307  40.0273473  85.2052889  90.2489487  38.7373966  82.9043047
  90.7777253  38.2266420  82.2913209  90.5117706  38.4216496  83.7688580
  89.0027720  30.5165898  98.0265866  88.3268357  30.4160028  98.6968241
  89.8255354  30.3605112  98.4901863  80.7506579  36.7537835  90.6478381
  81.3360016  36.0081523  90.7806285  80.5531418  37.0641792  91.5315045
  83.6045235  39.7889082  85.6640823  82.9355610  40.2735210  85.1804863
  83.4658104  40.0358303  86.5784202  75.3424234  29.3243435  89.3682824
  75.3808334  28.7907026  90.1619942  74.8364527  28.7978641  88.7493801
  87.7450503  41.8232826  92.2623482  88.2968811  41.9864447  93.0272567
  88.0856697  42.4137264  91.5903507  82.7214997  24.1707976  92.8645366
  82.7856323  25.0322807  92.4522764  82.6582117  23.5581977  92.1317725
  82.1967269  26.2431108  96.5118401  82.8239308  25.8608186  97.1255925
  81.3395188  26.0245310  96.8774093  92.5961378  36.6494083  98.1172136
  93.1401282  37.2624042  97.6227091  92.0148222  37.2073662  98.6339149
  78.9732812  28.0507537  82.4436755  79.2686253  27.1418216  82.3903809
  78.0720848  28.0295277  82.1217758  90.8818891  39.7714801  89.2487164
  90.7570030  38.9704541  88.7398109  91.5397982  40.2660995  88.7601134
  82.5027059  26.1263534  88.4264304  81.7813645  26.7399502  88.2871777
  83.2920315  26.6621299  88.3480950  92.9453799  37.5723822  90.8766714
  91.9984134  37.4529173  90.8045041  93.2936572  36.6846320  90.9592975
  85.3053372  23.4617960  94.7004956  85.8287774  23.7080257  95.4631265
  85.0865706  24.2937995  94.2808093  80.7020653  25.7321635  82.5676081
  80.3733360  24.8519014  82.3851187  81.0560024  25.6769304  83.4552470
  89.9500232  37.3676538  87.0771066  89.8025195  36.4393245  87.2578636
  90.7753726  37.3896628  86.5928141  83.8162477  26.0194605  82.9351558
  84.1558549  26.5480526  82.2130167  84.2634597  26.3575011  83.7110125
  93.5534354  38.1905096  88.1635939  94.4780902  37.9847958  88.0260390
  93.3849657  37.9421498  89.0725280  86.5105917  24.4031656  92.3854626
  86.1702738  23.6039469  92.7875306  85.8044924  24.7033366  91.8131460
  87.1622389  21.4880968  90.8381949  87.9848459  21.0141446  90.7160840
  87.4060453  22.2671452  91.3380636  85.8030624  24.5169226  81.1344851
  86.5238986  24.8950479  80.6308568  85.1795928  25.2358103  81.2379829
  89.9461747  25.2214375  82.0703183  90.1625361  26.1039013  81.7692012
  89.4655814  24.8300589  81.3408825  84.6860968  28.1800089  88.6473928
  84.5405549  28.4940392  89.5398209  84.2086172  28.7984989  88.0944827
  86.5457351  25.1702637  88.6954818  86.5318920  24.2743730  88.3587115
  87.2629779  25.1773300  89.3293104  88.3983482  25.6039977  90.7407945
  88.1401259  26.5257047  90.7392275  87.8668522  25.2070411  91.4308409
  93.3429670  38.7090764  83.5198030  93.5166548  38.1437186  82.7671883
  93.8358562  39.5091659  83.3377520  79.1606630  30.7205433  91.5861589
  78.6160098  31.4965241  91.7181863  80.0385980  31.0676237  91.4280711
  85.9494247  24.0517017  83.9642388  86.0710158  23.1233663  84.1633275
  85.6596289  24.0655703  83.0520703  88.8185437  21.7371927  87.1009107
  88.8407134  21.8011260  86.1461087  89.2353496  20.8976436  87.2949614
  99.1969061  31.4727187  85.1388330  99.6400208  30.7234512  84.7407453
  98.3195572  31.4637323  84.7562062  94.3304843  38.0257528  80.6194929
  95.0255747  38.6464221  80.8382243  94.6727993  37.1752880  80.8947307
  79.9472652  29.8475329  94.4791746  79.2054388  29.9957965  95.0656376
  79.6265396  30.1083595  93.6158495  96.2296266  35.4757234  82.1482259
  96.7547590  35.8144507  81.4231579  96.1418618  34.5404249  81.9645394
  87.8916315  39.3891308  94.2772136  88.2003441  39.1440454  95.1494836
  88.6891797  39.5937946  93.7891006  87.9136927  41.5429217  86.5077513
  87.4741917  41.0505596  87.2010369  88.6645044  41.0002185  86.2669588
  80.3929266  37.7340758  86.5102141  81.2187286  37.4344530  86.1300784
  80.0423318  36.9648380  86.9591929  85.3610799  37.0867226  88.5799814
  84.7390808  36.4237931  88.2802042  86.0315666  37.1128358  87.8973462
  78.5937871  35.6527084  87.4691074  77.7569779  35.2249259  87.2875075
  78.5661516  35.8459528  88.4061865  85.4335326  25.5649014  98.1732320
  85.4823482  26.4411137  97.7910090  85.9757841  25.0226407  97.6003963
  95.9190172  36.1090137  97.4533457  95.1285716  36.0914276  96.9137957
  95.6823527  36.6478431  98.2082494  96.0388047  32.9582604  94.7666186
  96.0886052  32.7932611  95.7081709  95.9301970  32.0909863  94.3764067
  84.9224306  35.6371150  82.0558275  85.0712426  36.3206614  81.4024948
  85.7290749  35.6176240  82.5707731  93.3291809  28.9413532  96.0825493
  94.2301672  28.8019997  95.7909490  93.4039784  29.1067987  97.0223670
  87.6634615  26.3180387  94.9278679  86.7937924  26.6113953  94.6561267
  87.8994095  26.9020832  95.6485943  97.5406244  35.3779545  95.0108207
  97.2491052  35.7409526  95.8471668  96.9278375  34.6646554  94.8321539
  98.7401926  32.9432425  87.5310778  99.5748818  33.3822229  87.6948338
  98.8761055  32.4671078  86.7119023  95.7893432  30.5012160  93.4788265
  96.2647554  30.6939806  92.6707117  94.8658997  30.5571346  93.2331649
  82.6776939  31.6636327  83.0619344  82.4322981  30.7598657  83.2599554
  82.8472853  31.6653478  82.1198822  90.3673649  22.5360004  92.4444099
  90.8855592  23.2721031  92.1190588  90.0128781  22.8423997  93.2790858
  81.9472586  27.3964685  80.5605505  81.2541831  27.4709040  79.9045541
  81.7024338  26.6325028  81.0827022  90.6186243  18.9560286  87.9644996
  90.8987997  18.2883475  88.5905422  91.4036850  19.1489382  87.4519660
  88.4219711  38.1319280  79.5270022  87.8493678  38.7509467  79.0740494
  88.9952505  38.6818642  80.0609944  94.4895101  27.3777920  91.7116571
  95.4412524  27.4776018  91.7328795  94.3198552  26.5856189  92.2214655
  92.5109481  24.4633503  91.8975972  91.9159413  24.7438516  91.2022461
  92.2259177  24.9527404  92.6692713  91.6416971  38.4156430  80.6578604
  92.5747644  38.3501992  80.8611480  91.5540184  39.2512697  80.1993137
  94.2704988  37.7322300  77.6182552  94.1918619  37.3982164  78.5118310
  95.0914655  38.2244068  77.6174024  96.9683179  30.5984040  90.8258871
  96.9359499  29.6600041  91.0118554  97.5783803  30.6768077  90.0924696
  88.8066510  29.4680093  76.8686075  89.7525614  29.3386301  76.9374493
  88.4280755  28.7294755  77.3455503  97.1177667  27.3895083  90.8717154
  96.6016716  26.6053540  90.6847083  98.0017616  27.0613800  91.0363673
  94.7788394  21.1336099  86.8312967  94.5813215  20.8251187  87.7156298
  95.3888100  21.8597738  86.9610896 102.7859729  31.6600047  89.9664907
 103.5163117  31.3985335  90.5272611 102.1766674  30.9228769  90.0066975
 100.8675026  29.8007909  90.5639359 100.1408189  29.6663874  89.9555850
 100.4522313  30.1084738  91.3696077  88.6905202  33.5197839  98.3286732
  89.6108212  33.6976438  98.5226778  88.6554785  32.5753884  98.1766431
  86.9909427  27.3930069  76.8040960  86.0840882  27.0963182  76.8803674
  87.2685408  27.0959887  75.9375246  77.9087367  28.7136433  87.2540006
  77.5890152  27.8601741  86.9614380  77.3620795  28.9285011  88.0097974
  81.6867275  31.4298874  90.9709513  81.9053285  32.3615981  90.9897547
  82.0993049  31.0706848  91.7564317  88.6071493  21.9366959  82.9585201
  87.7972221  21.5914044  83.3340447  89.2955910  21.6274503  83.5472813
  90.5362041  21.0145006  84.5809498  91.0893080  21.4340459  85.2399521
  90.7732127  20.0880754  84.6232454  86.5595140  27.0032079 100.3612262
  86.4591867  27.9526436 100.2924353  86.3416682  26.6750318  99.4888332
  85.7608212  24.2517004  76.9452939  86.6227376  24.5771903  77.2048756
  85.9458556  23.4648500  76.4326005  77.7775627  32.3339344  89.2233128
  77.0839099  31.9193297  88.7103082  78.5248618  32.3759881  88.6266547
  93.9140848  23.1245531  84.0888162  93.3339517  23.7830335  83.7066215
  93.6476781  22.3022875  83.6775580  92.3644414  22.5250589  86.2909482
  92.8644193  22.6367123  85.4823801  93.0080022  22.2211641  86.9310291
  86.4226410  30.4329218  99.1777323  85.9393492  31.2329578  99.3841212
  86.5087349  30.4437163  98.2244767  79.6912370  32.2657598  87.0999143
  79.6683058  32.3645285  86.1481026  80.0013006  33.1122749  87.4216309
  82.3499748  34.3233753  91.2145757  83.3043001  34.2917695  91.1475689
  82.1512271  33.8624377  92.0295983  82.9399130  32.8934869  93.7816555
  83.7592019  33.3878948  93.8051392  83.2135938  31.9766837  93.7534122
  92.6965726  25.2845621  83.1444510  91.8091581  25.5695272  82.9264705
  93.1119715  25.1239385  82.2971787  96.0480262  25.3092142  86.8598850
  96.8240652  25.7988595  87.1323466  95.3228396  25.7350196  87.3170719
  98.4852821  26.0219761  87.9172790  99.0797312  25.7815497  87.2066098
  98.5579404  25.3026892  88.5446327  80.7049976  39.8653372  88.2315955
  80.5704444  39.1053773  87.6653953  80.2882039  40.5894272  87.7644744
  91.8408939  35.0490296  77.2392530  92.5444790  35.2540298  77.8550186
  91.1171588  35.6167058  77.5041614  92.6706750  30.8000157  83.3594801
  92.6141951  31.2568709  82.5202433  93.2235092  30.0390842  83.1817643
  96.4811556  26.5889889  84.1844920  96.2248490  26.1886525  85.0153128
  95.8564424  27.3033683  84.0595059 100.7923894  29.3285962  86.6916211
 100.2323452  29.3979152  87.4647773 100.1867397  29.1526947  85.9715708
  83.8619102  40.7622689  88.4434398  83.7451487  41.7068122  88.3413088
  83.0411549  40.4596251  88.8320197  93.7495637  35.4872825  79.2890990
  94.5841241  35.0554024  79.1068465  93.5879980  35.3154839  80.2167885
  93.4041529  31.9904938  80.6547330  93.3490333  31.8249210  79.7135774
  92.7787584  32.6980971  80.8109519  78.1934044  27.2273003  94.4808752
  78.8392908  26.7171957  94.9695977  77.9851195  27.9641684  95.0552177
  90.7187436  34.2953850  99.9800892  91.5878596  34.4694503  99.6187527
  90.2394188  35.1148267  99.8576622  86.7137655  21.4913047  80.2332648
  86.7016324  22.4354887  80.3900919  87.6061076  21.3083193  79.9392109
  84.8873616  41.4150951  91.6590326  85.7900863  41.4474562  91.9756821
  84.6610987  40.4851402  91.6736662  86.6427219  40.1681938  88.3200405
  85.6922850  40.1683799  88.2064777  86.9459705  39.4214672  87.8036439
  90.5289774  18.0855824  84.4878585  89.7622170  17.5314311  84.6335267
  90.9400479  18.1577693  85.3492737  82.5331535  24.3740620  98.5783766
  83.3962997  24.0177425  98.7887091  81.9596946  24.0354515  99.2659170
 102.3779912  46.0042476  89.3846167 103.0158322  45.8849224  88.6809507
 102.2600755  46.9523320  89.4434119  99.1869618  45.9569904  89.3207692
  98.8488130  45.8410969  88.4328227 100.0559386  45.5561069  89.3008698
  95.0456434  47.8105381  85.3104583  94.4821299  47.7195318  84.5420871
  94.9308829  46.9905285  85.7907075  99.6689401  47.1104756  95.2793897
  99.6578042  46.7157554  94.4074401  99.8310041  46.3770829  95.8727669
  92.5920866  49.3056572  88.1488803  93.3842158  48.9647397  87.7335103
  92.8317516  49.4151547  89.0690957 100.6255993  51.4776348  80.6219048
  99.9743972  52.0630429  80.2353062 101.4200355  52.0082543  80.6814085
  94.5511620  48.5665486  81.0206182  95.3242496  48.0194473  80.8819058
  94.9037019  49.4309735  81.2320643  96.3896662  49.8941868  94.2273081
  96.0986528  50.7987499  94.1119748  97.0253647  49.9358395  94.9417151
  97.3152869  47.2718716  90.8174441  97.9116442  47.0474739  90.1031404
  97.3727841  46.5303462  91.4199889  96.8877898  44.7258152  78.6524632
  97.1403418  44.2039673  77.8908095  95.9502457  44.5624297  78.7551316
 101.9321180  43.7293930  86.4599375 102.7184270  43.3113353  86.1089792
 102.1959885  44.6340022  86.6281024 102.1031258  49.1666780  81.1588032
 101.4677091  49.2401407  81.8708937 101.7728664  49.7560379  80.4807111
 107.3329608  43.6669163  87.3632354 108.0654780  43.0968380  87.5970183
 106.5768963  43.2790764  87.8038859  96.6074186  46.6286258  80.8549007
  96.4910444  45.9531161  81.5230091  96.7176446  46.1418632  80.0381160
  98.9505727  46.0896405  84.5595696  98.5863935  45.5627026  85.2708618
  99.8072843  45.6994874  84.3862182 104.8555028  37.3790737  91.8226962
 104.5238353  38.2486148  91.5988177 104.2600641  37.0627021  92.5020993
  98.5911214  41.1186304  79.5557045  98.7585617  41.9866541  79.9227516
  98.4008383  41.2813586  78.6318334 101.3486547  49.5803283  91.2222875
 101.0487271  50.4828322  91.1138682 101.0037607  49.3135467  92.0744028
  94.7999029  46.0317080  87.2559579  93.8749525  45.8993294  87.4637271
  95.0483442  46.8111299  87.7529522 104.7483691  42.0985824  88.9020312
 103.8400569  42.0301232  88.6079073 104.6971287  42.5757768  89.7302138
  98.5700435  43.5743962  80.5403712  98.4500060  44.0201013  81.3789192
  97.8753024  43.9229280  79.9817250  92.1607840  45.6750354  88.0903369
  92.2900221  45.9284833  89.0042780  91.4805291  46.2678062  87.7708024
  96.3307327  56.3447604  84.1893843  96.2531357  57.2955429  84.2682323
  95.7268971  55.9993476  84.8468769  98.8224557  43.5175469  96.8455210
  98.0457891  44.0769389  96.8358074  99.4615120  44.0032252  97.3670080
 106.6145338  40.3002262  90.6798186 105.9719718  40.5934795  90.0337981
 106.1100266  40.1855182  91.4851383 104.2685501  44.0465435  81.3684046
 105.1803357  44.2792822  81.1931743 103.7595148  44.6302479  80.8059124
  97.0770929  46.3260922  96.4073177  97.8185614  46.8645966  96.1308000
  96.3707915  46.9527211  96.5644728 102.5526269  48.4690063  95.0045338
 102.9609625  48.0272473  94.2599971 101.8303531  47.8942690  95.2579531
  98.9057339  43.4062670  92.3778895  99.7518534  43.8302083  92.5213544
  98.8455977  42.7496294  93.0717458 102.8755084  49.0291254  88.7597627
 102.2463946  49.1936968  88.0573695 102.4880746  49.4432863  89.5308591
 106.7544316  49.9645691  86.1141991 106.0695354  50.3444593  85.5639024
 106.8388165  50.5741018  86.8473939 102.0556784  41.0667038  94.0360069
 101.8117716  41.8209099  93.4994344 102.3316715  41.4452386  94.8707316
 104.0095247  47.6105650  92.7137334 104.2212142  48.2537410  92.0371715
 103.9624995  46.7767967  92.2459264 101.6121476  40.2223471  89.6173906
 100.7505955  40.5204725  89.9090644 101.6383911  40.4393870  88.6854939
  98.4283046  48.7665662  86.0247712  98.8921391  49.0453365  85.2352335
  98.1639844  47.8649106  85.8420803  95.3207127  48.3137143  88.9627475
  95.8908484  48.7424412  88.3244960  95.9115238  48.0319728  89.6611661
  97.3651932  44.8888814  82.8337277  98.0675975  45.3409858  83.3011204
  97.0332560  44.2472633  83.4617170  95.8132293  43.4800571  97.2088487
  95.1830954  44.1616852  97.4423883  95.7068381  43.3683652  96.2641625
  91.1077266  43.1472367  88.1354411  90.3176320  43.4029895  87.6594521
  91.5988513  43.9620705  88.2406451 105.1241075  50.4877606  90.8859692
 105.9458519  50.0857793  90.6042373 105.1203478  50.3845840  91.8375807
  93.0592011  43.5116946  85.0937888  92.2623174  43.6235640  85.6121383
  92.8317603  43.8503598  84.2278778  98.8897679  50.0361649  93.0420402
  98.9542111  50.4982056  93.8778574  98.1808602  49.4059014  93.1702712
  89.3914969  43.4002857  90.5669402  89.6423007  44.2849867  90.8326978
  89.9274517  43.2207459  89.7944493 113.2147068  46.8316354  87.2344663
 112.4610777  46.2623752  87.0788668 113.3494609  46.7979019  88.1815298
  98.6045696  51.7029757  82.9099382  98.4691371  52.5481292  83.3384230
  99.1455509  51.9049034  82.1465316  95.0913036  37.7821337  99.5713738
  94.6979981  37.2287535 100.2461382  95.9079176  38.0931915  99.9620255
  92.0575094  49.2205195  83.4827308  92.5699614  50.0148445  83.6332872
  92.7097806  48.5231485  83.4160909  93.8669978  52.3370951  85.5650061
  94.0436607  53.2588916  85.3771045  94.6626812  52.0229370  85.9944441
  98.0080997  39.1979216  97.1633994  98.7490710  39.7986369  97.0838457
  98.2398920  38.4556853  96.6052037  93.1522335  44.3835583  95.4412224
  93.0375850  43.4820840  95.7419323  92.2966853  44.6299280  95.0897040
 100.2314173  52.3253323  97.0399725  99.7878027  51.5389702  96.7220629
 100.8931386  52.5132474  96.3743615  94.9901294  53.8549125  91.5660403
  95.5408719  53.7266188  90.7937397  94.1512770  54.1544014  91.2155296
 102.3295411  52.6056123  95.0681126 102.3113886  53.4265004  94.5761395
 103.2515331  52.4810198  95.2931267  98.7868465  50.1200253  95.9104634
  99.3196802  49.3588541  95.6803942  98.2582546  49.8273904  96.6528789
 101.9538160  35.2260319  91.4398276 101.6102429  36.1161960  91.3637387
 102.3217122  35.0361976  90.5767861  90.0224010  47.5493849  84.2586878
  90.8599232  47.9590857  84.0420586  90.2002278  46.6093291  84.2287072
 101.9188442  45.2168930  79.9470711 101.4035066  45.9873534  80.1859098
 101.6465751  44.5434066  80.5703773  99.5035554  40.0618630  85.0055949
  98.6477150  39.6725481  84.8261588  99.9162505  40.1410591  84.1455735
 101.0334700  37.5964974  89.4047509 100.5299496  37.5595109  88.5915314
 101.3265307  38.5057716  89.4644166  97.2777586  37.6803703  88.4113691
  98.1430583  37.4846512  88.0519580  97.3455095  37.4514055  89.3383048
 106.8922717  47.9701284  81.8823885 106.1152159  47.6312444  81.4379047
 107.5714198  47.9753907  81.2078850 101.7074746  43.0896022  81.7730492
 101.4024881  43.4042171  82.6240635 102.6605188  43.1677442  81.8157825
 100.1521178  49.2486245  83.4223446  99.6242539  48.5139005  83.1096684
  99.6508680  50.0260921  83.1763415 105.1314024  47.4435266  88.5390493
 104.4737698  48.1334527  88.6270621 105.9354423  47.8331697  88.8824479
  94.8839905  39.9105911  85.7830058  95.4583657  39.6881093  85.0503251
  95.4710888  39.9794606  86.5358659 103.9419482  45.7979638  86.5894434
 104.4551364  46.4309630  87.0916144 104.5920706  45.1980834  86.2237794
  95.2109492  41.9410372  79.8025943  94.3746804  42.2785059  80.1235218
  95.0714262  41.8059352  78.8653080  97.1862573  36.7847160  84.5105127
  96.5326985  36.4696177  83.8861742  97.1443047  36.1622901  85.2364950
  98.2973778  47.0666455  76.4258419  97.3900839  46.8355709  76.6249568
  98.7944810  46.2704075  76.6132401 101.2041857  55.7763963  79.3455105
 100.5303555  56.0795659  79.9540063 101.5907679  56.5793043  78.9960562
 100.4200313  43.2729094  88.8352775  99.5022875  43.4944041  88.6774463
 100.8360457  43.3475404  87.9764482 101.2035361  44.6720509  83.9655455
 101.9507180  45.1841907  83.6562577 101.4726951  44.3504562  84.8259849
  99.4762011  47.1679050  80.9482409  98.5673230  46.8838083  81.0454879
  99.5057095  47.5878129  80.0885716 104.7081279  50.7785640  84.7173577
 104.2543606  49.9376550  84.7738767 104.0775245  51.4147038  85.0548357
 103.6514198  41.7077626  85.9474244 102.9136955  41.1955012  86.2784487
 103.9040972  41.2678007  85.1357521 103.1514218  52.6162136  85.6523395
 103.4437192  53.1767193  84.9335761 103.6612838  52.9090697  86.4076554
 103.7525825  34.4853878  86.5416014 104.0584702  33.6251241  86.2541929
 104.4778430  35.0771498  86.3415008  90.0450182  44.8884564  84.9297612
  89.8474581  44.2953925  84.2048678  89.4896846  44.5836774  85.6473550
  98.0246905  44.7807671  87.0492205  98.0795515  43.8281507  86.9734681
  97.2138107  44.9367110  87.5333503  99.1738099  48.7087794  78.2870488
  98.7357529  47.9923653  77.8276125  99.9148540  48.9363909  77.7255579
  95.9639265  43.3984731  84.8082584  95.1507131  43.6978901  85.2147776
  96.4598259  43.0040419  85.5257066  98.1147843  53.3942487  86.7416848
  98.0724022  53.6203334  85.8125380  99.0310542  53.1605862  86.8902649
 101.5613477  43.8626555  93.6397477 101.9162864  44.0898028  94.4991943
 102.2085608  44.1944932  93.0174733 107.2911214  46.9844991  84.3446806
 107.1529112  47.1746587  83.4167996 106.9347433  47.7464374  84.8014858
  95.4553340  40.9703086  90.4243819  96.0952719  40.8291845  89.7266782
  94.6230870  40.6837599  90.0482421 107.3180593  49.0521518  89.3558078
 107.7517100  48.9596807  90.2041132 108.0312174  49.0279018  88.7178094
  96.2313644  50.2705516  86.5378811  97.0254242  49.7755837  86.3361386
  95.5205336  49.7423380  86.1746517 101.0508488  52.6523612  90.8891179
 101.1045511  53.2214548  91.6568894 100.1823270  52.8225497  90.5245216
  92.5396407  44.4148598  82.6138564  91.6093995  44.3533054  82.8308526
  92.6353879  43.8924551  81.8175205  92.4581956  40.9403411  85.2016805
  92.7188774  41.8548744  85.0925966  93.2799129  40.4727854  85.3513418
  93.9306882  42.3541168  92.3715630  94.6029935  42.1458530  91.7228279
  93.1036668  42.1563254  91.9320862 108.1796143  49.0945219  91.8890963
 108.3732033  49.9991029  92.1350238 108.0796761  48.6352638  92.7229548
  99.8332454  38.9803109  94.3881291  99.1860369  39.6793059  94.2945767
 100.6033469  39.4139253  94.7557539 103.2411252  49.2451961  97.4631844
 103.0896758  49.0162513  96.5461928 103.2315931  50.2022563  97.4763189
 100.0096588  46.8183874  92.4478110 100.9388648  46.9695034  92.2747078
  99.5887618  46.9067895  91.5926757  98.8084920  50.8434538  90.2176648
  98.6696005  50.4753323  91.0902586  98.0199516  51.3582178  90.0460606
  99.4033072  55.9443635  81.5602185  99.5784827  55.4731678  82.3747807
  98.7165860  56.5709401  81.7883445 100.3590135  50.2216141  87.6065486
 100.0239968  50.1816911  88.5023136  99.8594081  49.5560857  87.1335896
  94.3334379  45.6283771  93.1318067  94.1954177  44.8964010  93.7329606
  95.2439302  45.5392671  92.8502255 103.2949327  47.5672175  77.8802546
 102.6778497  46.8419004  77.7835598 102.8265815  48.3281536  77.5369620
  96.9616680  45.3403731  92.6201747  97.6716298  44.6996923  92.5788365
  96.9185988  45.5916625  93.5427927 104.9503458  52.2771084  95.5408326
 104.8916004  51.5930304  94.8738909 105.3522977  53.0190074  95.0888952
  95.6745614  42.3268948  94.4397386  95.1382971  41.8759687  95.0918982
  95.0862322  42.4614857  93.6967850  93.9694157  59.0932998  88.3342045
  94.2090755  59.7251522  89.0121063  93.1263353  58.7421038  88.6207404
  95.0847872  41.7857600  77.0023850  94.2077339  41.6646401  76.6386096
  95.5605626  40.9943678  76.7502738 104.9520865  50.2410668  93.7722306
 104.0647644  49.9036590  93.8948704 105.5219417  49.5093699  94.0091071
  86.6050013  46.5734760  87.0965357  87.2921052  46.2596490  86.5086372
  86.4498141  47.4776124  86.8232608  91.4084735  41.4624956  91.5250381
  91.3242923  40.8550626  90.7900791  90.5867441  41.9533974  91.5259877
  98.4822019  54.9012120  90.7383549  98.4092190  55.7067092  91.2502853
  98.0399412  55.1004086  89.9131570  98.2711798  54.1383890  84.2486370
  97.4879320  54.6805570  84.3424595  98.9704544  54.6557870  84.6480611
 101.5808449  39.9478520  86.8920576 102.0777148  39.1948482  86.5721646
 100.8095430  39.9842836  86.3263785 109.4338206  45.6518885  88.5338867
 109.4228082  46.5343601  88.1632800 108.5655585  45.2990436  88.3393404
 100.9420702  54.7998954  92.8941707 101.6548675  55.4346419  92.8217609
 100.4510731  54.8962820  92.0781709 102.6638229  48.7050207  84.4658999
 101.7294508  48.8251669  84.2963703 102.8414898  47.8022674  84.2019009
  98.1643417  42.0895903  86.6192260  97.7941205  41.5366943  87.3073166
  98.6602510  41.4854036  86.0667260 106.0510781  44.5467526  85.0009033
 106.5171233  45.3795518  84.9269336 106.5018281  44.0812508  85.7054292
  95.9932616  52.5493398  93.7147278  96.6942075  53.1829881  93.8676672
  95.5227731  52.8908129  92.9542917 104.1187012  50.8911347  81.9995185
 104.3946856  50.7767942  82.9089059 103.2491510  50.4928832  81.9607358
 104.0227443  36.9148113  89.0399935 103.1090523  37.1452340  89.2082141
 104.4520545  36.9986557  89.8913967 103.7933902  45.1038005  91.5399829
 103.1405352  45.3513913  90.8852281 104.1714282  44.2902143  91.2062306
 100.7541076  55.1397698  85.6427999 100.9363470  54.3219354  86.1055751
 101.5774062  55.3565391  85.2052889 101.0883241  54.0665883  82.9043047
 101.6171008  53.5558338  82.2913209 101.3511461  53.7508414  83.7688580
  99.8421475  45.8457816  98.0265866  99.1662112  45.7451945  98.6968241
 100.6649109  45.6897030  98.4901863  91.5900334  52.0829753  90.6478381
  92.1753771  51.3373441  90.7806285  91.3925172  52.3933709  91.5315045
  94.4438989  55.1181000  85.6640823  93.7749364  55.6027128  85.1804863
  94.3051859  55.3650221  86.5784202  86.1817989  44.6535353  89.3682824
  86.2202088  44.1198944  90.1619942  85.6758282  44.1270558  88.7493801
  98.5844258  57.1524744  92.2623482  99.1362566  57.3156365  93.0272567
  98.9250451  57.7429181  91.5903507  93.5608751  39.4999893  92.8645366
  93.6250078  40.3614724  92.4522764  93.4975871  38.8873895  92.1317725
  93.0361024  41.5723026  96.5118401  93.6633062  41.1900103  97.1255925
  92.1788942  41.3537228  96.8774093 103.4355132  51.9786001  98.1172136
 103.9795036  52.5915959  97.6227091 102.8541977  52.5365580  98.6339149
  89.8126566  43.3799455  82.4436755  90.1080007  42.4710133  82.3903809
  88.9114602  43.3587194  82.1217758 101.7212645  55.1006719  89.2487164
 101.5963785  54.2996459  88.7398109 102.3791736  55.5952912  88.7601134
  93.3420813  41.4555452  88.4264304  92.6207399  42.0691419  88.2871777
  94.1314069  41.9913216  88.3480950 103.7847553  52.9015739  90.8766714
 102.8377889  52.7821090  90.8045041 104.1330327  52.0138237  90.9592975
  96.1447127  38.7909878  94.7004956  96.6681529  39.0372175  95.4631265
  95.9259460  39.6229913  94.2808093  91.5414408  41.0613553  82.5676081
  91.2127114  40.1810932  82.3851187  91.8953779  41.0061221  83.4552470
 100.7893987  52.6968455  87.0771066 100.6418949  51.7685163  87.2578636
 101.6147480  52.7188546  86.5928141  94.6556231  41.3486522  82.9351558
  94.9952304  41.8772444  82.2130167  95.1028352  41.6866929  83.7110125
 104.3928109  53.5197014  88.1635939 105.3174656  53.3139875  88.0260390
 104.2243412  53.2713415  89.0725280  97.3499672  39.7323573  92.3854626
  97.0096492  38.9331386  92.7875306  96.6438678  40.0325284  91.8131460
  98.0016144  36.8172886  90.8381949  98.8242213  36.3433364  90.7160840
  98.2454207  37.5963369  91.3380636  96.6424378  39.8461144  81.1344851
  97.3632741  40.2242397  80.6308568  96.0189682  40.5650021  81.2379829
 100.7855501  40.5506293  82.0703183 101.0019115  41.4330931  81.7692012
 100.3049568  40.1592506  81.3408825  95.5254722  43.5092006  88.6473928
  95.3799303  43.8232309  89.5398209  95.0479926  44.1276907  88.0944827
  97.3851105  40.4994554  88.6954818  97.3712674  39.6035648  88.3587115
  98.1023533  40.5065218  89.3293104  99.2377236  40.9331894  90.7407945
  98.9795014  41.8548965  90.7392275  98.7062276  40.5362329  91.4308409
 104.1823425  54.0382682  83.5198030 104.3560302  53.4729104  82.7671883
 104.6752316  54.8383576  83.3377520  90.0000385  46.0497351  91.5861589
  89.4553853  46.8257159  91.7181863  90.8779734  46.3968155  91.4280711
  96.7888001  39.3808935  83.9642388  96.9103912  38.4525581  84.1633275
  96.4990044  39.3947621  83.0520703  99.6579192  37.0663845  87.1009107
  99.6800888  37.1303178  86.1461087 100.0747251  36.2268354  87.2949614
 110.0362816  46.8019105  85.1388330 110.4793962  46.0526430  84.7407453
 109.1589326  46.7929241  84.7562062 105.1698597  53.3549446  80.6194929
 105.8649502  53.9756139  80.8382243 105.5121747  52.5044797  80.8947307
  90.7866406  45.1767247  94.4791746  90.0448143  45.3249882  95.0656376
  90.4659151  45.4375513  93.6158495 107.0690020  50.8049152  82.1482259
 107.5941344  51.1436424  81.4231579 106.9812373  49.8696167  81.9645394
  98.7310069  54.7183225  94.2772136  99.0397196  54.4732372  95.1494836
  99.5285551  54.9229864  93.7891006  98.7530681  56.8721135  86.5077513
  98.3135671  56.3797514  87.2010369  99.5038798  56.3294102  86.2669588
  91.2323020  53.0632676  86.5102141  92.0581040  52.7636448  86.1300784
  90.8817072  52.2940298  86.9591929  96.2004553  52.4159144  88.5799814
  95.5784563  51.7529849  88.2802042  96.8709420  52.4420276  87.8973462
  89.4331625  50.9819002  87.4691074  88.5963534  50.5541176  87.2875075
  89.4055271  51.1751445  88.4061865  96.2729081  40.8940932  98.1732320
  96.3217236  41.7703055  97.7910090  96.8151595  40.3518325  97.6003963
 106.7583926  51.4382055  97.4533457 105.9679470  51.4206194  96.9137957
 106.5217281  51.9770349  98.2082494 106.8781802  48.2874522  94.7666186
 106.9279806  48.1224529  95.7081709 106.7695725  47.4201781  94.3764067
  95.7618060  50.9663067  82.0558275  95.9106181  51.6498532  81.4024948
  96.5684504  50.9468157  82.5707731 104.1685564  44.2705450  96.0825493
 105.0695427  44.1311914  95.7909490 104.2433538  44.4359904  97.0223670
  98.5028369  41.6472304  94.9278679  97.6331679  41.9405870  94.6561267
  98.7387850  42.2312749  95.6485943 108.3799998  50.7071463  95.0108207
 108.0884807  51.0701444  95.8471668 107.7672130  49.9938471  94.8321539
 109.5795681  48.2724343  87.5310778 110.4142572  48.7114147  87.6948338
 109.7154809  47.7962996  86.7119023 106.6287187  45.8304078  93.4788265
 107.1041308  46.0231724  92.6707117 105.7052752  45.8863264  93.2331649
  93.5170693  46.9928245  83.0619344  93.2716735  46.0890575  83.2599554
  93.6866608  46.9945395  82.1198822 101.2067403  37.8651921  92.4444099
 101.7249347  38.6012948  92.1190588 100.8522536  38.1715915  93.2790858
  92.7866341  42.7256602  80.5605505  92.0935586  42.8000957  79.9045541
  92.5418093  41.9616946  81.0827022 101.4579997  34.2852204  87.9644996
 101.7381751  33.6175393  88.5905422 102.2430604  34.4781299  87.4519660
  99.2613466  53.4611198  79.5270022  98.6887433  54.0801385  79.0740494
  99.8346259  54.0110559  80.0609944 105.3288856  42.7069838  91.7116571
 106.2806278  42.8067935  91.7328795 105.1592306  41.9148106  92.2214655
 103.3503235  39.7925421  91.8975972 102.7553167  40.0730434  91.2022461
 103.0652932  40.2819322  92.6692713 102.4810726  53.7448348  80.6578604
 103.4141399  53.6793909  80.8611480 102.3933938  54.5804615  80.1993137
 105.1098742  53.0614218  77.6182552 105.0312374  52.7274082  78.5118310
 105.9308409  53.5535986  77.6174024 107.8076933  45.9275957  90.8258871
 107.7753253  44.9891958  91.0118554 108.4177557  46.0059994  90.0924696
  99.6460264  44.7972010  76.8686075 100.5919369  44.6678219  76.9374493
  99.2674509  44.0586672  77.3455503 107.9571422  42.7187001  90.8717154
 107.4410471  41.9345458  90.6847083 108.8411370  42.3905718  91.0363673
 105.6182149  36.4628016  86.8312967 105.4206970  36.1543105  87.7156298
 106.2281854  37.1889655  86.9610896 113.6253483  46.9891964  89.9664907
 114.3556872  46.7277252  90.5272611 113.0160429  46.2520686  90.0066975
 111.7068780  45.1299827  90.5639359 110.9801944  44.9955792  89.9555850
 111.2916067  45.4376656  91.3696077  99.5298957  48.8489757  98.3286732
 100.4501966  49.0268356  98.5226778  99.4948540  47.9045802  98.1766431
  97.8303181  42.7221987  76.8040960  96.9234637  42.4255100  76.8803674
  98.1079162  42.4251805  75.9375246  88.7481122  44.0428350  87.2540006
  88.4283906  43.1893658  86.9614380  88.2014550  44.2576928  88.0097974
  92.5261029  46.7590791  90.9709513  92.7447039  47.6907899  90.9897547
  92.9386803  46.3998766  91.7564317  99.4465247  37.2658877  82.9585201
  98.6365975  36.9205962  83.3340447 100.1349664  36.9566420  83.5472813
 101.3755795  36.3436923  84.5809498 101.9286834  36.7632377  85.2399521
 101.6125882  35.4172671  84.6232454  97.3988895  42.3323997 100.3612262
  97.2985622  43.2818354 100.2924353  97.1810437  42.0042236  99.4888332
  96.6001966  39.5808922  76.9452939  97.4621130  39.9063820  77.2048756
  96.7852310  38.7940418  76.4326005  88.6169382  47.6631262  89.2233128
  87.9232853  47.2485215  88.7103082  89.3642373  47.7051798  88.6266547
 104.7534602  38.4537449  84.0888162 104.1733272  39.1122253  83.7066215
 104.4870535  37.6314793  83.6775580 103.2038169  37.8542506  86.2909482
 103.7037947  37.9659041  85.4823801 103.8473777  37.5503559  86.9310291
  97.2620165  45.7621136  99.1777323  96.7787246  46.5621496  99.3841212
  97.3481104  45.7729081  98.2244767  90.5306124  47.5949516  87.0999143
  90.5076812  47.6937203  86.1481026  90.8406761  48.4414666  87.4216309
  93.1893502  49.6525671  91.2145757  94.1436756  49.6209613  91.1475689
  92.9906026  49.1916294  92.0295983  93.7792884  48.2226787  93.7816555
  94.5985773  48.7170865  93.8051392  94.0529692  47.3058755  93.7534122
 103.5359481  40.6137539  83.1444510 102.6485336  40.8987190  82.9264705
 103.9513470  40.4531302  82.2971787 106.8874017  40.6384060  86.8598850
 107.6634407  41.1280512  87.1323466 106.1622151  41.0642114  87.3170719
 109.3246575  41.3511679  87.9172790 109.9191066  41.1107415  87.2066098
 109.3973159  40.6318810  88.5446327  91.5443731  55.1945290  88.2315955
  91.4098199  54.4345691  87.6653953  91.1275793  55.9186190  87.7644744
 102.6802694  50.3782214  77.2392530 103.3838544  50.5832216  77.8550186
 101.9565343  50.9458975  77.5041614 103.5100504  46.1292075  83.3594801
 103.4535706  46.5860626  82.5202433 104.0628847  45.3682759  83.1817643
 107.3205310  41.9181807  84.1844920 107.0642244  41.5178442  85.0153128
 106.6958178  42.6325601  84.0595059 111.6317648  44.6577880  86.6916211
 111.0717206  44.7271069  87.4647773 111.0261151  44.4818865  85.9715708
  94.7012857  56.0914607  88.4434398  94.5845241  57.0360040  88.3413088
  93.8805303  55.7888169  88.8320197 104.5889391  50.8164743  79.2890990
 105.4234995  50.3845941  79.1068465 104.4273734  50.6446756  80.2167885
 104.2435284  47.3196856  80.6547330 104.1884087  47.1541128  79.7135774
 103.6181339  48.0272889  80.8109519  89.0327799  42.5564920  94.4808752
  89.6786662  42.0463874  94.9695977  88.8244950  43.2933602  95.0552177
 101.5581191  49.6245768  99.9800892 102.4272350  49.7986420  99.6187527
 101.0787942  50.4440185  99.8576622  97.5531409  36.8204965  80.2332648
  97.5410079  37.7646805  80.3900919  98.4454831  36.6375110  79.9392109
  95.7267371  56.7442869  91.6590326  96.6294618  56.7766479  91.9756821
  95.5004741  55.8143320  91.6736662  97.4820973  55.4973855  88.3200405
  96.5316604  55.4975717  88.2064777  97.7853459  54.7506590  87.8036439
 101.3683528  33.4147742  84.4878585 100.6015924  32.8606228  84.6335267
 101.7794233  33.4869610  85.3492737  93.3725290  39.7032538  98.5783766
  94.2356751  39.3469342  98.7887091  92.7990700  39.3646432  99.2659170
 113.2173666  61.3334394  89.3846167 113.8552076  61.2141141  88.6809507
 113.0994509  62.2815238  89.4434119 110.0263373  61.2861822  89.3207692
 109.6881884  61.1702887  88.4328227 110.8953141  60.8852987  89.3008698
 105.8850188  63.1397298  85.3104583 105.3215054  63.0487235  84.5420871
 105.7702584  62.3197203  85.7907075 110.5083156  62.4396674  95.2793897
 110.4971797  62.0449472  94.4074401 110.6703795  61.7062746  95.8727669
 103.4314620  64.6348490  88.1488803 104.2235912  64.2939315  87.7335103
 103.6711271  64.7443465  89.0690957 111.4649747  66.8068266  80.6219048
 110.8137727  67.3922347  80.2353062 112.2594110  67.3374461  80.6814085
 105.3905374  63.8957403  81.0206182 106.1636250  63.3486390  80.8819058
 105.7430773  64.7601653  81.2320643 107.2290417  65.2233786  94.2273081
 106.9380283  66.1279416  94.1119748 107.8647401  65.2650313  94.9417151
 108.1546624  62.6010634  90.8174441 108.7510196  62.3766656  90.1031404
 108.2121595  61.8595380  91.4199889 107.7271652  60.0550069  78.6524632
 107.9797173  59.5331591  77.8908095 106.7896211  59.8916215  78.7551316
 112.7714935  59.0585848  86.4599375 113.5578024  58.6405271  86.1089792
 113.0353639  59.9631940  86.6281024 112.9425012  64.4958698  81.1588032
 112.3070845  64.5693325  81.8708937 112.6122419  65.0852297  80.4807111
 118.1723362  58.9961081  87.3632354 118.9048534  58.4260298  87.5970183
 117.4162718  58.6082681  87.8038859 107.4467941  61.9578175  80.8549007
 107.3304199  61.2823079  81.5230091 107.5570201  61.4710549  80.0381160
 109.7899482  61.4188322  84.5595696 109.4257689  60.8918943  85.2708618
 110.6466598  61.0286791  84.3862182 115.6948782  52.7082655  91.8226962
 115.3632107  53.5778066  91.5988177 115.0994396  52.3918939  92.5020993
 109.4304969  56.4478222  79.5557045 109.5979371  57.3158459  79.9227516
 109.2402138  56.6105504  78.6318334 112.1880302  64.9095201  91.2222875
 111.8881025  65.8120240  91.1138682 111.8431361  64.6427384  92.0744028
 105.6392783  61.3608998  87.2559579 104.7143280  61.2285212  87.4637271
 105.8877197  62.1403217  87.7529522 115.5877446  57.4277741  88.9020312
 114.6794323  57.3593150  88.6079073 115.5365042  57.9049686  89.7302138
 109.4094190  58.9035880  80.5403712 109.2893815  59.3492930  81.3789192
 108.7146778  59.2521197  79.9817250 103.0001594  61.0042271  88.0903369
 103.1293976  61.2576750  89.0042780 102.3199046  61.5969979  87.7708024
 107.1701082  71.6739521  84.1893843 107.0925111  72.6247346  84.2682323
 106.5662725  71.3285394  84.8468769 109.6618312  58.8467387  96.8455210
 108.8851646  59.4061307  96.8358074 110.3008875  59.3324170  97.3670080
 117.4539092  55.6294180  90.6798186 116.8113472  55.9226713  90.0337981
 116.9494021  55.5147100  91.4851383 115.1079256  59.3757353  81.3684046
 116.0197112  59.6084740  81.1931743 114.5988903  59.9594397  80.8059124
 107.9164684  61.6552840  96.4073177 108.6579368  62.1937884  96.1308000
 107.2101669  62.2819129  96.5644728 113.3920023  63.7981981  95.0045338
 113.8003380  63.3564391  94.2599971 112.6697285  63.2234608  95.2579531
 109.7451094  58.7354587  92.3778895 110.5912289  59.1594001  92.5213544
 109.6849731  58.0788212  93.0717458 113.7148838  64.3583171  88.7597627
 113.0857701  64.5228885  88.0573695 113.3274500  64.7724781  89.5308591
 117.5938070  65.2937609  86.1141991 116.9089108  65.6736510  85.5639024
 117.6781919  65.9032936  86.8473939 112.8950539  56.3958956  94.0360069
 112.6511471  57.1501016  93.4994344 113.1710469  56.7744303  94.8707316
 114.8489002  62.9397568  92.7137334 115.0605897  63.5829328  92.0371715
 114.8018750  62.1059885  92.2459264 112.4515231  55.5515389  89.6173906
 111.5899710  55.8496642  89.9090644 112.4777665  55.7685788  88.6854939
 109.2676800  64.0957579  86.0247712 109.7315146  64.3745282  85.2352335
 109.0033598  63.1941024  85.8420803 106.1600881  63.6429061  88.9627475
 106.7302238  64.0716329  88.3244960 106.7508993  63.3611646  89.6611661
 108.2045686  60.2180732  82.8337277 108.9069729  60.6701775  83.3011204
 107.8726315  59.5764551  83.4617170 106.6526048  58.8092488  97.2088487
 106.0224708  59.4908769  97.4423883 106.5462135  58.6975570  96.2641625
 101.9471020  58.4764284  88.1354411 101.1570074  58.7321813  87.6594521
 102.4382267  59.2912622  88.2406451 115.9634830  65.8169524  90.8859692
 116.7852273  65.4149711  90.6042373 115.9597232  65.7137758  91.8375807
 103.8985765  58.8408864  85.0937888 103.1016929  58.9527558  85.6121383
 103.6711358  59.1795516  84.2278778 109.7291433  65.3653567  93.0420402
 109.7935866  65.8273974  93.8778574 109.0202357  64.7350932  93.1702712
 100.2308723  58.7294775  90.5669402 100.4816761  59.6141785  90.8326978
 100.7668271  58.5499376  89.7944493 109.4439451  67.0321674  82.9099382
 109.3085125  67.8773210  83.3384230 109.9849263  67.2340952  82.1465316
 105.9306790  53.1113254  99.5713738 105.5373736  52.5579453 100.2461382
 106.7472931  53.4223833  99.9620255 102.8968848  64.5497112  83.4827308
 103.4093369  65.3440363  83.6332872 103.5491561  63.8523403  83.4160909
 104.7063733  67.6662869  85.5650061 104.8830361  68.5880833  85.3771045
 105.5020566  67.3521288  85.9944441 108.8474751  54.5271133  97.1633994
 109.5884465  55.1278286  97.0838457 109.0792674  53.7848771  96.6052037
 103.9916089  59.7127501  95.4412224 103.8769604  58.8112758  95.7419323
 103.1360607  59.9591197  95.0897040 111.0707927  67.6545241  97.0399725
 110.6271781  66.8681619  96.7220629 111.7325141  67.8424391  96.3743615
 105.8295048  69.1841042  91.5660403 106.3802473  69.0558106  90.7937397
 104.9906524  69.4835931  91.2155296 113.1689165  67.9348041  95.0681126
 113.1507640  68.7556922  94.5761395 114.0909085  67.8102116  95.2931267
 109.6262219  65.4492170  95.9104634 110.1590556  64.6880458  95.6803942
 109.0976300  65.1565822  96.6528789 112.7931914  50.5552236  91.4398276
 112.4496184  51.4453878  91.3637387 113.1610877  50.3653894  90.5767861
 100.8617765  62.8785767  84.2586878 101.6992987  63.2882775  84.0420586
 101.0396033  61.9385209  84.2287072 112.7582197  60.5460847  79.9470711
 112.2428820  61.3165452  80.1859098 112.4859505  59.8725983  80.5703773
 110.3429308  55.3910548  85.0055949 109.4870904  55.0017398  84.8261588
 110.7556260  55.4702509  84.1455735 111.8728455  52.9256891  89.4047509
 111.3693250  52.8887027  88.5915314 112.1659062  53.8349634  89.4644166
 108.1171341  53.0095621  88.4113691 108.9824337  52.8138430  88.0519580
 108.1848849  52.7805973  89.3383048 117.7316471  63.2993202  81.8823885
 116.9545914  62.9604361  81.4379047 118.4107952  63.3045825  81.2078850
 112.5468500  58.4187939  81.7730492 112.2418636  58.7334089  82.6240635
 113.4998942  58.4969359  81.8157825 110.9914932  64.5778163  83.4223446
 110.4636294  63.8430922  83.1096684 110.4902435  65.3552839  83.1763415
 115.9707778  62.7727183  88.5390493 115.3131452  63.4626445  88.6270621
 116.7748177  63.1623615  88.8824479 105.7233660  55.2397829  85.7830058
 106.2977412  55.0173011  85.0503251 106.3104642  55.3086524  86.5358659
 114.7813237  61.1271556  86.5894434 115.2945119  61.7601548  87.0916144
 115.4314461  60.5272751  86.2237794 106.0503247  57.2702290  79.8025943
 105.2140559  57.6076977  80.1235218 105.9108016  57.1351270  78.8653080
 108.0256327  52.1139078  84.5105127 107.3720740  51.7988095  83.8861742
 107.9836801  51.4914818  85.2364950 109.1367532  62.3958373  76.4258419
 108.2294594  62.1647626  76.6249568 109.6338564  61.5995992  76.6132401
 112.0435611  71.1055880  79.3455105 111.3697310  71.4087577  79.9540063
 112.4301433  71.9084961  78.9960562 111.2594068  58.6021011  88.8352775
 110.3416629  58.8235958  88.6774463 111.6754211  58.6767322  87.9764482
 112.0429115  60.0012427  83.9655455 112.7900934  60.5133824  83.6562577
 112.3120705  59.6796480  84.8259849 110.3155766  62.4970968  80.9482409
 109.4066985  62.2130001  81.0454879 110.3450849  62.9170046  80.0885716
 115.5475033  66.1077557  84.7173577 115.0937360  65.2668467  84.7738767
 114.9169000  66.7438956  85.0548357 114.4907953  57.0369543  85.9474244
 113.7530709  56.5246930  86.2784487 114.7434726  56.5969925  85.1357521
 113.9907972  67.9454054  85.6523395 114.2830947  68.5059111  84.9335761
 114.5006593  68.2382615  86.4076554 114.5919580  49.8145795  86.5416014
 114.8978457  48.9543159  86.2541929 115.3172185  50.4063416  86.3415008
 100.8843936  60.2176482  84.9297612 100.6868336  59.6245843  84.2048678
 100.3290600  59.9128692  85.6473550 108.8640660  60.1099588  87.0492205
 108.9189269  59.1573425  86.9734681 108.0531862  60.2659028  87.5333503
 110.0131853  64.0379712  78.2870488 109.5751283  63.3215570  77.8276125
 110.7542294  64.2655826  77.7255579 106.8033020  58.7276648  84.8082584
 105.9900885  59.0270819  85.2147776 107.2992014  58.3332337  85.5257066
 108.9541597  68.7234405  86.7416848 108.9117776  68.9495251  85.8125380
 109.8704296  68.4897780  86.8902649 112.4007231  59.1918473  93.6397477
 112.7556619  59.4189946  94.4991943 113.0479362  59.5236849  93.0174733
 118.1304968  62.3136909  84.3446806 117.9922867  62.5038505  83.4167996
 117.7741187  63.0756291  84.8014858 106.2947094  56.2995004  90.4243819
 106.9346474  56.1583763  89.7266782 105.4624625  56.0129517  90.0482421
 118.1574348  64.3813436  89.3558078 118.5910854  64.2888725  90.2041132
 118.8705929  64.3570936  88.7178094 107.0707398  65.5997434  86.5378811
 107.8647997  65.1047754  86.3361386 106.3599091  65.0715297  86.1746517
 111.8902243  67.9815530  90.8891179 111.9439265  68.5506466  91.6568894
 111.0217024  68.1517415  90.5245216 103.3790162  59.7440516  82.6138564
 102.4487750  59.6824971  82.8308526 103.4747634  59.2216469  81.8175205
 103.2975711  56.2695329  85.2016805 103.5582528  57.1840662  85.0925966
 104.1192883  55.8019771  85.3513418 104.7700636  57.6833086  92.3715630
 105.4423690  57.4750448  91.7228279 103.9430423  57.4855172  91.9320862
 119.0189897  64.4237136  91.8890963 119.2125787  65.3282947  92.1350238
 118.9190516  63.9644555  92.7229548 110.6726208  54.3095027  94.3881291
 110.0254123  55.0084976  94.2945767 111.4427224  54.7431171  94.7557539
 114.0805006  64.5743879  97.4631844 113.9290512  64.3454431  96.5461928
 114.0709686  65.5314480  97.4763189 110.8490342  62.1475792  92.4478110
 111.7782402  62.2986951  92.2747078 110.4281372  62.2359813  91.5926757
 109.6478674  66.1726456  90.2176648 109.5089760  65.8045241  91.0902586
 108.8593270  66.6874096  90.0460606 110.2426826  71.2735553  81.5602185
 110.4178582  70.8023596  82.3747807 109.5559614  71.9001319  81.7883445
 111.1983889  65.5508059  87.6065486 110.8633722  65.5108829  88.5023136
 110.6987835  64.8852775  87.1335896 105.1728133  60.9575689  93.1318067
 105.0347931  60.2255928  93.7329606 106.0833057  60.8684589  92.8502255
 114.1343081  62.8964093  77.8802546 113.5172252  62.1710921  77.7835598
 113.6659569  63.6573453  77.5369620 107.8010434  60.6695648  92.6201747
 108.5110053  60.0288840  92.5788365 107.7579742  60.9208543  93.5427927
 115.7897213  67.6063002  95.5408326 115.7309759  66.9222222  94.8738909
 116.1916731  68.3481992  95.0888952 106.5139368  57.6560866  94.4397386
 105.9776725  57.2051605  95.0918982 105.9256076  57.7906775  93.6967850
 104.8087911  74.4224915  88.3342045 105.0484510  75.0543440  89.0121063
 103.9657108  74.0712955  88.6207404 105.9241627  57.1149517  77.0023850
 105.0471093  56.9938318  76.6386096 106.3999380  56.3235596  76.7502738
 115.7914620  65.5702585  93.7722306 114.9041399  65.2328507  93.8948704
 116.3613171  64.8385617  94.0091071  97.4443767  61.9026677  87.0965357
  98.1314807  61.5888407  86.5086372  97.2891896  62.8068042  86.8232608
 102.2478489  56.7916874  91.5250381 102.1636678  56.1842543  90.7900791
 101.4261196  57.2825892  91.5259877 109.3215773  70.2304038  90.7383549
 109.2485945  71.0359009  91.2502853 108.8793166  70.4296004  89.9131570
 109.1105553  69.4675808  84.2486370 108.3273075  70.0097488  84.3424595
 109.8098298  69.9849787  84.6480611 112.4202203  55.2770437  86.8920576
 112.9170903  54.5240400  86.5721646 111.6489185  55.3134754  86.3263785
 120.2731960  60.9810803  88.5338867 120.2621837  61.8635518  88.1632800
 119.4049340  60.6282354  88.3393404 111.7814457  70.1290872  92.8941707
 112.4942429  70.7638337  92.8217609 111.2904486  70.2254738  92.0781709
 113.5031984  64.0342125  84.4658999 112.5688263  64.1543587  84.2963703
 113.6808652  63.1314591  84.2019009 109.0037172  57.4187820  86.6192260
 108.6334959  56.8658861  87.3073166 109.4996264  56.8145954  86.0667260
 116.8904535  59.8759444  85.0009033 117.3564987  60.7087435  84.9269336
 117.3412036  59.4104425  85.7054292 106.8326370  67.8785315  93.7147278
 107.5335830  68.5121798  93.8676672 106.3621485  68.2200047  92.9542917
 114.9580766  66.2203265  81.9995185 115.2340610  66.1059860  82.9089059
 114.0885265  65.8220750  81.9607358 114.8621198  52.2440031  89.0399935
 113.9484278  52.4744258  89.2082141 115.2914299  52.3278475  89.8913967
 114.6327656  60.4329923  91.5399829 113.9799107  60.6805830  90.8852281
 115.0108036  59.6194061  91.2062306 111.5934830  70.4689616  85.6427999
 111.7757225  69.6511272  86.1055751 112.4167816  70.6857308  85.2052889
 111.9276996  69.3957801  82.9043047 112.4564762  68.8850256  82.2913209
 112.1905215  69.0800331  83.7688580 110.6815229  61.1749734  98.0265866
 110.0055866  61.0743863  98.6968241 111.5042863  61.0188948  98.4901863
 102.4294088  67.4121670  90.6478381 103.0147525  66.6665358  90.7806285
 102.2318927  67.7225627  91.5315045 105.2832744  70.4472918  85.6640823
 104.6143119  70.9319045  85.1804863 105.1445613  70.6942138  86.5784202
  97.0211743  59.9827271  89.3682824  97.0595843  59.4490861  90.1619942
  96.5152036  59.4562476  88.7493801 109.4238012  72.4816661  92.2623482
 109.9756320  72.6448283  93.0272567 109.7644206  73.0721099  91.5903507
 104.4002506  54.8291811  92.8645366 104.4643832  55.6906642  92.4522764
 104.3369626  54.2165813  92.1317725 103.8754778  56.9014944  96.5118401
 104.5026817  56.5192021  97.1255925 103.0182697  56.6829146  96.8774093
 114.2748887  67.3077919  98.1172136 114.8188791  67.9207877  97.6227091
 113.6935731  67.8657497  98.6339149 100.6520321  58.7091373  82.4436755
 100.9473762  57.8002051  82.3903809  99.7508357  58.6879112  82.1217758
 112.5606400  70.4298637  89.2487164 112.4357539  69.6288377  88.7398109
 113.2185491  70.9244830  88.7601134 104.1814568  56.7847369  88.4264304
 103.4601154  57.3983337  88.2871777 104.9707824  57.3205134  88.3480950
 114.6241308  68.2307657  90.8766714 113.6771643  68.1113008  90.8045041
 114.9724081  67.3430155  90.9592975 106.9840881  54.1201796  94.7004956
 107.5075283  54.3664092  95.4631265 106.7653215  54.9521831  94.2808093
 102.3808162  56.3905470  82.5676081 102.0520869  55.5102849  82.3851187
 102.7347533  56.3353139  83.4552470 111.6287741  68.0260373  87.0771066
 111.4812704  67.0977081  87.2578636 112.4541235  68.0480464  86.5928141
 105.4949986  56.6778440  82.9351558 105.8346058  57.2064361  82.2130167
 105.9422106  57.0158846  83.7110125 115.2321863  68.8488932  88.1635939
 116.1568411  68.6431793  88.0260390 115.0637166  68.6005333  89.0725280
 108.1893426  55.0615491  92.3854626 107.8490247  54.2623304  92.7875306
 107.4832433  55.3617202  91.8131460 108.8409898  52.1464803  90.8381949
 109.6635967  51.6725282  90.7160840 109.0847962  52.9255287  91.3380636
 107.4818133  55.1753062  81.1344851 108.2026495  55.5534315  80.6308568
 106.8583437  55.8941939  81.2379829 111.6249256  55.8798211  82.0703183
 111.8412870  56.7622849  81.7692012 111.1443323  55.4884424  81.3408825
 106.3648477  58.8383924  88.6473928 106.2193058  59.1524227  89.5398209
 105.8873681  59.4568824  88.0944827 108.2244860  55.8286472  88.6954818
 108.2106429  54.9327565  88.3587115 108.9417288  55.8357136  89.3293104
 110.0770991  56.2623812  90.7407945 109.8188768  57.1840883  90.7392275
 109.5456031  55.8654247  91.4308409 115.0217179  69.3674599  83.5198030
 115.1954057  68.8021022  82.7671883 115.5146071  70.1675494  83.3377520
 100.8394139  61.3789268  91.5861589 100.2947607  62.1549076  91.7181863
 101.7173489  61.7260073  91.4280711 107.6281756  54.7100852  83.9642388
 107.7497667  53.7817498  84.1633275 107.3383798  54.7239538  83.0520703
 110.4972946  52.3955763  87.1009107 110.5194643  52.4595096  86.1461087
 110.9141005  51.5560271  87.2949614 120.8756570  62.1311022  85.1388330
 121.3187716  61.3818347  84.7407453 119.9983081  62.1221159  84.7562062
 116.0092352  68.6841364  80.6194929 116.7043256  69.3048056  80.8382243
 116.3515502  67.8336715  80.8947307 101.6260161  60.5059165  94.4791746
 100.8841897  60.6541800  95.0656376 101.3052905  60.7667430  93.6158495
 117.9083775  66.1341069  82.1482259 118.4335099  66.4728342  81.4231579
 117.8206127  65.1988085  81.9645394 109.5703824  70.0475143  94.2772136
 109.8790950  69.8024290  95.1494836 110.3679306  70.2521781  93.7891006
 109.5924436  72.2013052  86.5077513 109.1529426  71.7089431  87.2010369
 110.3432553  71.6586020  86.2669588 102.0716775  68.3924593  86.5102141
 102.8974795  68.0928365  86.1300784 101.7210827  67.6232216  86.9591929
 107.0398308  67.7451062  88.5799814 106.4178317  67.0821767  88.2802042
 107.7103175  67.7712193  87.8973462 100.2725380  66.3110920  87.4691074
  99.4357288  65.8833094  87.2875075 100.2449025  66.5043363  88.4061865
 107.1122835  56.2232850  98.1732320 107.1610991  57.0994972  97.7910090
 107.6545349  55.6810243  97.6003963 117.5977681  66.7673973  97.4533457
 116.8073225  66.7498112  96.9137957 117.3611036  67.3062267  98.2082494
 117.7175556  63.6166439  94.7666186 117.7673561  63.4516447  95.7081709
 117.6089479  62.7493698  94.3764067 106.6011815  66.2954985  82.0558275
 106.7499935  66.9790449  81.4024948 107.4078258  66.2760075  82.5707731
 115.0079318  59.5997367  96.0825493 115.9089181  59.4603832  95.7909490
 115.0827293  59.7651822  97.0223670 109.3422124  56.9764222  94.9278679
 108.4725433  57.2697788  94.6561267 109.5781604  57.5604667  95.6485943
 119.2193753  66.0363381  95.0108207 118.9278561  66.3993361  95.8471668
 118.6065884  65.3230389  94.8321539 120.4189435  63.6016261  87.5310778
 121.2536327  64.0406065  87.6948338 120.5548564  63.1254914  86.7119023
 117.4680941  61.1595995  93.4788265 117.9435063  61.3523642  92.6707117
 116.5446506  61.2155181  93.2331649 104.3564448  62.3220163  83.0619344
 104.1110490  61.4182493  83.2599554 104.5260362  62.3237313  82.1198822
 112.0461158  53.1943839  92.4444099 112.5643101  53.9304866  92.1190588
 111.6916290  53.5007832  93.2790858 103.6260095  58.0548520  80.5605505
 102.9329340  58.1292875  79.9045541 103.3811847  57.2908864  81.0827022
 112.2973752  49.6144121  87.9644996 112.5775506  48.9467311  88.5905422
 113.0824359  49.8073217  87.4519660 110.1007220  68.7903115  79.5270022
 109.5281187  69.4093303  79.0740494 110.6740014  69.3402477  80.0609944
 116.1682610  58.0361755  91.7116571 117.1200033  58.1359853  91.7328795
 115.9986061  57.2440024  92.2214655 114.1896990  55.1217339  91.8975972
 113.5946922  55.4022351  91.2022461 113.9046686  55.6111240  92.6692713
 113.3204480  69.0740265  80.6578604 114.2535153  69.0085827  80.8611480
 113.2327693  69.9096532  80.1993137 115.9492497  68.3906136  77.6182552
 115.8706128  68.0565999  78.5118310 116.7702163  68.8827904  77.6174024
 118.6470688  61.2567875  90.8258871 118.6147008  60.3183876  91.0118554
 119.2571312  61.3351912  90.0924696 110.4854019  60.1263928  76.8686075
 111.4313123  59.9970136  76.9374493 110.1068264  59.3878590  77.3455503
 118.7965176  58.0478919  90.8717154 118.2804225  57.2637375  90.6847083
 119.6805125  57.7197635  91.0363673 116.4575903  51.7919934  86.8312967
 116.2600724  51.4835022  87.7156298 117.0675609  52.5181573  86.9610896
 110.3692711  64.1781674  98.3286732 111.2895721  64.3560273  98.5226778
 110.3342294  63.2337720  98.1766431 108.6696936  58.0513905  76.8040960
 107.7628391  57.7547017  76.8803674 108.9472917  57.7543723  75.9375246
  99.5874876  59.3720268  87.2540006  99.2677661  58.5185576  86.9614380
  99.0408304  59.5868846  88.0097974 103.3654784  62.0882709  90.9709513
 103.5840794  63.0199817  90.9897547 103.7780558  61.7290683  91.7564317
 110.2859002  52.5950794  82.9585201 109.4759730  52.2497879  83.3340447
 110.9743419  52.2858338  83.5472813 112.2149550  51.6728841  84.5809498
 112.7680589  52.0924294  85.2399521 112.4519636  50.7464589  84.6232454
 108.2382649  57.6615915 100.3612262 108.1379376  58.6110272 100.2924353
 108.0204191  57.3334154  99.4888332 107.4395721  54.9100840  76.9452939
 108.3014885  55.2355738  77.2048756 107.6246065  54.1232336  76.4326005
  99.4563136  62.9923179  89.2233128  98.7626608  62.5777132  88.7103082
 100.2036127  63.0343716  88.6266547 115.5928357  53.7829366  84.0888162
 115.0127026  54.4414170  83.7066215 115.3264290  52.9606711  83.6775580
 114.0431923  53.1834424  86.2909482 114.5431702  53.2950958  85.4823801
 114.6867531  52.8795477  86.9310291 108.1013919  61.0913054  99.1777323
 107.6181001  61.8913414  99.3841212 108.1874858  61.1020998  98.2244767
 101.3699879  62.9241433  87.0999143 101.3470567  63.0229120  86.1481026
 101.6800515  63.7706584  87.4216309 104.0287257  64.9817588  91.2145757
 104.9830510  64.9501531  91.1475689 103.8299780  64.5208212  92.0295983
 104.6186639  63.5518704  93.7816555 105.4379528  64.0462783  93.8051392
 104.8923447  62.6350672  93.7534122 114.3753235  55.9429457  83.1444510
 113.4879090  56.2279107  82.9264705 114.7907224  55.7823220  82.2971787
 117.7267771  55.9675978  86.8598850 118.5028161  56.4572430  87.1323466
 117.0015905  56.3934032  87.3170719 120.1640330  56.6803597  87.9172790
 120.7584821  56.4399333  87.2066098 120.2366913  55.9610727  88.5446327
 102.3837485  70.5237208  88.2315955 102.2491953  69.7637609  87.6653953
 101.9669548  71.2478108  87.7644744 113.5196448  65.7074131  77.2392530
 114.2232299  65.9124134  77.8550186 112.7959097  66.2750893  77.5041614
 114.3494259  61.4583993  83.3594801 114.2929460  61.9152544  82.5202433
 114.9022601  60.6974677  83.1817643 118.1599065  57.2473724  84.1844920
 117.9035999  56.8470360  85.0153128 117.5351933  57.9617518  84.0595059
 122.4711403  59.9869798  86.6916211 121.9110960  60.0562987  87.4647773
 121.8654906  59.8110782  85.9715708 105.5406611  71.4206525  88.4434398
 105.4238995  72.3651957  88.3413088 104.7199058  71.1180086  88.8320197
 115.4283146  66.1456660  79.2890990 116.2628750  65.7137859  79.1068465
 115.2667489  65.9738674  80.2167885 115.0829038  62.6488774  80.6547330
 115.0277842  62.4833045  79.7135774 114.4575093  63.3564807  80.8109519
  99.8721553  57.8856838  94.4808752 100.5180417  57.3755792  94.9695977
  99.6638704  58.6225520  95.0552177 112.3974945  64.9537686  99.9800892
 113.2666105  65.1278338  99.6187527 111.9181697  65.7732102  99.8576622
 108.3925164  52.1496883  80.2332648 108.3803833  53.0938723  80.3900919
 109.2848585  51.9667028  79.9392109 106.5661125  72.0734787  91.6590326
 107.4688372  72.1058397  91.9756821 106.3398496  71.1435238  91.6736662
 108.3214727  70.8265773  88.3200405 107.3710358  70.8267635  88.2064777
 108.6247214  70.0798508  87.8036439 112.2077283  48.7439659  84.4878585
 111.4409679  48.1898146  84.6335267 112.6187988  48.8161528  85.3492737
 104.2119044  55.0324455  98.5783766 105.0750506  54.6761260  98.7887091
 103.6384455  54.6938350  99.2659170 120.8657127  76.6153740  89.3207692
 120.5275639  76.4994804  88.4328227 121.7346895  76.2144905  89.3008698
 116.7243943  78.4689216  85.3104583 116.1608808  78.3779153  84.5420871
 116.6096338  77.6489121  85.7907075 121.3476910  77.7688591  95.2793897
 121.3365551  77.3741390  94.4074401 121.5097550  77.0354664  95.8727669
 114.2708375  79.9640408  88.1488803 115.0629667  79.6231232  87.7335103
 114.5105025  80.0735383  89.0690957 116.2299129  79.2249321  81.0206182
 117.0030005  78.6778308  80.8819058 116.5824528  80.0893570  81.2320643
 118.0684171  80.5525703  94.2273081 117.7774037  81.4571334  94.1119748
 118.7041156  80.5942231  94.9417151 118.9940378  77.9302552  90.8174441
 119.5903950  77.7058574  90.1031404 119.0515350  77.1887297  91.4199889
 118.5665407  75.3841987  78.6524632 118.8190927  74.8623508  77.8908095
 117.6289966  75.2208132  78.7551316 118.2861695  77.2870093  80.8549007
 118.1697953  76.6114996  81.5230091 118.3963955  76.8002467  80.0381160
 120.6293236  76.7480240  84.5595696 120.2651444  76.2210861  85.2708618
 121.4860352  76.3578709  84.3862182 120.2698723  71.7770140  79.5557045
 120.4373126  72.6450376  79.9227516 120.0795892  71.9397421  78.6318334
 116.4786538  76.6900916  87.2559579 115.5537034  76.5577130  87.4637271
 116.7270951  77.4695135  87.7529522 120.2487944  74.2327797  80.5403712
 120.1287569  74.6784848  81.3789192 119.5540533  74.5813115  79.9817250
 113.8395349  76.3334189  88.0903369 113.9687730  76.5868668  89.0042780
 113.1592800  76.9261897  87.7708024 118.0094836  87.0031439  84.1893843
 117.9318866  87.9539264  84.2682323 117.4056480  86.6577312  84.8468769
 120.5012066  74.1759304  96.8455210 119.7245400  74.7353225  96.8358074
 121.1402629  74.6616087  97.3670080 118.7558438  76.9844758  96.4073177
 119.4973123  77.5229802  96.1308000 118.0495424  77.6111047  96.5644728
 120.5844848  74.0646505  92.3778895 121.4306043  74.4885919  92.5213544
 120.5243486  73.4080129  93.0717458 120.1070555  79.4249497  86.0247712
 120.5708900  79.7037200  85.2352335 119.8427353  78.5232942  85.8420803
 116.9994636  78.9720979  88.9627475 117.5695993  79.4008247  88.3244960
 117.5902747  78.6903563  89.6611661 119.0439441  75.5472649  82.8337277
 119.7463484  75.9993693  83.3011204 118.7120069  74.9056468  83.4617170
 117.4919802  74.1384406  97.2088487 116.8618463  74.8200687  97.4423883
 117.3855890  74.0267488  96.2641625 112.7864775  73.8056202  88.1354411
 111.9963829  74.0613731  87.6594521 113.2776022  74.6204540  88.2406451
 114.7379520  74.1700781  85.0937888 113.9410683  74.2819476  85.6121383
 114.5105112  74.5087434  84.2278778 120.5685188  80.6945485  93.0420402
 120.6329620  81.1565892  93.8778574 119.8596111  80.0642849  93.1702712
 111.0702478  74.0586692  90.5669402 111.3210516  74.9433702  90.8326978
 111.6062026  73.8791294  89.7944493 120.2833205  82.3613592  82.9099382
 120.1478880  83.2065128  83.3384230 120.8243018  82.5632870  82.1465316
 116.7700545  68.4405172  99.5713738 116.3767490  67.8871370 100.2461382
 117.5866685  68.7515750  99.9620255 113.7362603  79.8789030  83.4827308
 114.2487123  80.6732280  83.6332872 114.3885315  79.1815320  83.4160909
 115.5457487  82.9954786  85.5650061 115.7224116  83.9172751  85.3771045
 116.3414321  82.6813206  85.9944441 119.6868506  69.8563051  97.1633994
 120.4278219  70.4570204  97.0838457 119.9186429  69.1140689  96.6052037
 114.8309844  75.0419418  95.4412224 114.7163359  74.1404675  95.7419323
 113.9754362  75.2883115  95.0897040 116.6688803  84.5132960  91.5660403
 117.2196228  84.3850023  90.7937397 115.8300279  84.8127849  91.2155296
 120.4655974  80.7784088  95.9104634 120.9984311  80.0172376  95.6803942
 119.9370055  80.4857740  96.6528789 111.7011519  78.2077684  84.2586878
 112.5386741  78.6174693  84.0420586 111.8789787  77.2677127  84.2287072
 121.1823063  70.7202466  85.0055949 120.3264659  70.3309316  84.8261588
 121.5950014  70.7994427  84.1455735 118.9565095  68.3387539  88.4113691
 119.8218092  68.1430347  88.0519580 119.0242604  68.1097891  89.3383048
 121.8308686  79.9070080  83.4223446 121.3030048  79.1722840  83.1096684
 121.3296189  80.6844757  83.1763415 116.5627414  70.5689747  85.7830058
 117.1371166  70.3464928  85.0503251 117.1498397  70.6378441  86.5358659
 116.8897001  72.5994208  79.8025943 116.0534313  72.9368894  80.1235218
 116.7501771  72.4643188  78.8653080 118.8650082  67.4430996  84.5105127
 118.2114494  67.1280013  83.8861742 118.8230556  66.8206736  85.2364950
 119.9761287  77.7250291  76.4258419 119.0688348  77.4939544  76.6249568
 120.4732319  76.9287910  76.6132401 121.1549520  77.8262886  80.9482409
 120.2460739  77.5421918  81.0454879 121.1844604  78.2461964  80.0885716
 111.7237690  75.5468400  84.9297612 111.5262090  74.9537760  84.2048678
 111.1684354  75.2420610  85.6473550 119.7034414  75.4391506  87.0492205
 119.7583024  74.4865343  86.9734681 118.8925616  75.5950945  87.5333503
 120.8525608  79.3671629  78.2870488 120.4145038  78.6507488  77.8276125
 121.5936049  79.5947744  77.7255579 117.6426774  74.0568566  84.8082584
 116.8294640  74.3562736  85.2147776 118.1385768  73.6624255  85.5257066
 119.7935352  84.0526323  86.7416848 119.7511531  84.2787169  85.8125380
 120.7098051  83.8189697  86.8902649 117.1340849  71.6286921  90.4243819
 117.7740228  71.4875681  89.7266782 116.3018379  71.3421435  90.0482421
 117.9101153  80.9289352  86.5378811 118.7041751  80.4339672  86.3361386
 117.1992845  80.4007215  86.1746517 114.2183916  75.0732434  82.6138564
 113.2881504  75.0116889  82.8308526 114.3141388  74.5508386  81.8175205
 114.1369465  71.5987246  85.2016805 114.3976283  72.5132580  85.0925966
 114.9586638  71.1311689  85.3513418 115.6094391  73.0125004  92.3715630
 116.2817444  72.8042366  91.7228279 114.7824177  72.8147090  91.9320862
 121.5119963  69.6386944  94.3881291 120.8647878  70.3376894  94.2945767
 122.2820978  70.0723088  94.7557539 120.4872429  81.5018374  90.2176648
 120.3483514  81.1337158  91.0902586 119.6987025  82.0166013  90.0460606
 121.0820581  86.6027470  81.5602185 121.2572336  86.1315513  82.3747807
 120.3953369  87.2293236  81.7883445 122.0377644  80.8799977  87.6065486
 121.7027476  80.8400746  88.5023136 121.5381590  80.2144692  87.1335896
 116.0121888  76.2867607  93.1318067 115.8741686  75.5547845  93.7329606
 116.9226811  76.1976507  92.8502255 118.6404189  75.9987566  92.6201747
 119.3503807  75.3580758  92.5788365 118.5973497  76.2500461  93.5427927
 117.3533122  72.9852784  94.4397386 116.8170479  72.5343522  95.0918982
 116.7649831  73.1198693  93.6967850 115.6481666  89.7516833  88.3342045
 115.8878264  90.3835357  89.0121063 114.8050862  89.4004873  88.6207404
 116.7635381  72.4441435  77.0023850 115.8864848  72.3230236  76.6386096
 117.2393135  71.6527513  76.7502738 108.2837522  77.2318595  87.0965357
 108.9708561  76.9180325  86.5086372 108.1285650  78.1359960  86.8232608
 113.0872244  72.1208791  91.5250381 113.0030432  71.5134461  90.7900791
 112.2654950  72.6117810  91.5259877 120.1609528  85.5595955  90.7383549
 120.0879699  86.3650927  91.2502853 119.7186921  85.7587921  89.9131570
 119.9499307  84.7967726  84.2486370 119.1666829  85.3389406  84.3424595
 120.6492053  85.3141705  84.6480611 119.8430926  72.7479738  86.6192260
 119.4728714  72.1950778  87.3073166 120.3390019  72.1437871  86.0667260
 117.6720125  83.2077233  93.7147278 118.3729584  83.8413716  93.8676672
 117.2015240  83.5491965  92.9542917 121.5208984  76.5041651  98.0265866
 120.8449621  76.4035781  98.6968241 122.3436618  76.3480865  98.4901863
 113.2687843  82.7413588  90.6478381 113.8541280  81.9957276  90.7806285
 113.0712681  83.0517545  91.5315045 116.1226498  85.7764835  85.6640823
 115.4536873  86.2610963  85.1804863 115.9839368  86.0234056  86.5784202
 107.8605498  75.3119188  89.3682824 107.8989597  74.7782779  90.1619942
 107.3545791  74.7854394  88.7493801 120.2631767  87.8108579  92.2623482
 120.8150075  87.9740200  93.0272567 120.6037960  88.4013017  91.5903507
 115.2396260  70.1583729  92.8645366 115.3037586  71.0198560  92.4522764
 115.1763380  69.5457730  92.1317725 114.7148533  72.2306861  96.5118401
 115.3420571  71.8483939  97.1255925 113.8576451  72.0121063  96.8774093
 111.4914075  74.0383290  82.4436755 111.7867516  73.1293969  82.3903809
 110.5902111  74.0171030  82.1217758 115.0208322  72.1139287  88.4264304
 114.2994908  72.7275255  88.2871777 115.8101578  72.6497052  88.3480950
 117.8234636  69.4493713  94.7004956 118.3469038  69.6956010  95.4631265
 117.6046969  70.2813748  94.2808093 113.2201917  71.7197388  82.5676081
 112.8914623  70.8394767  82.3851187 113.5741288  71.6645057  83.4552470
 116.3343740  72.0070358  82.9351558 116.6739813  72.5356279  82.2130167
 116.7815860  72.3450764  83.7110125 119.0287181  70.3907409  92.3854626
 118.6884001  69.5915222  92.7875306 118.3226187  70.6909119  91.8131460
 119.6803653  67.4756721  90.8381949 120.5029722  67.0017199  90.7160840
 119.9241716  68.2547205  91.3380636 118.3211887  70.5044979  81.1344851
 119.0420250  70.8826232  80.6308568 117.6977191  71.2233856  81.2379829
 117.2042231  74.1675842  88.6473928 117.0586812  74.4816145  89.5398209
 116.7267435  74.7860742  88.0944827 119.0638614  71.1578390  88.6954818
 119.0500183  70.2619483  88.3587115 119.7811042  71.1649053  89.3293104
 120.9164745  71.5915730  90.7407945 120.6582523  72.5132800  90.7392275
 120.3849785  71.1946164  91.4308409 111.6787894  76.7081186  91.5861589
 111.1341362  77.4840994  91.7181863 112.5567243  77.0551991  91.4280711
 118.4675510  70.0392770  83.9642388 118.5891421  69.1109416  84.1633275
 118.1777553  70.0531456  83.0520703 121.3366701  67.7247680  87.1009107
 121.3588397  67.7887013  86.1461087 121.7534760  66.8852189  87.2949614
 112.4653915  75.8351082  94.4791746 111.7235651  75.9833718  95.0656376
 112.1446660  76.0959348  93.6158495 120.4097578  85.3767061  94.2772136
 120.7184705  85.1316207  95.1494836 121.2073060  85.5813699  93.7891006
 120.4318190  87.5304970  86.5077513 119.9923180  87.0381349  87.2010369
 121.1826307  86.9877938  86.2669588 112.9110529  83.7216511  86.5102141
 113.7368549  83.4220283  86.1300784 112.5604581  82.9524133  86.9591929
 117.8792062  83.0742979  88.5799814 117.2572072  82.4113684  88.2802042
 118.5496929  83.1004111  87.8973462 111.1119134  81.6402837  87.4691074
 110.2751042  81.2125012  87.2875075 111.0842780  81.8335281  88.4061865
 117.9516590  71.5524767  98.1732320 118.0004745  72.4286890  97.7910090
 118.4939104  71.0102160  97.6003963 117.4405569  81.6246903  82.0558275
 117.5893690  82.3082367  81.4024948 118.2472013  81.6051993  82.5707731
 120.1815878  72.3056140  94.9278679 119.3119188  72.5989706  94.6561267
 120.4175359  72.8896585  95.6485943 115.1958202  77.6512080  83.0619344
 114.9504244  76.7474410  83.2599554 115.3654117  77.6529231  82.1198822
 114.4653850  73.3840438  80.5605505 113.7723095  73.4584793  79.9045541
 114.2205602  72.6200781  81.0827022 120.9400975  84.1195033  79.5270022
 120.3674942  84.7385220  79.0740494 121.5133768  84.6694395  80.0609944
 121.3247773  75.4555846  76.8686075 122.2706878  75.3262054  76.9374493
 120.9462018  74.7170508  77.3455503 121.2086466  79.5073592  98.3286732
 122.1289475  79.6852191  98.5226778 121.1736049  78.5629637  98.1766431
 119.5090690  73.3805822  76.8040960 118.6022146  73.0838935  76.8803674
 119.7866671  73.0835640  75.9375246 110.4268631  74.7012186  87.2540006
 110.1071415  73.8477494  86.9614380 109.8802059  74.9160764  88.0097974
 114.2048538  77.4174627  90.9709513 114.4234548  78.3491734  90.9897547
 114.6174312  77.0582601  91.7564317 121.1252756  67.9242712  82.9585201
 120.3153484  67.5789797  83.3340447 121.8137173  67.6150256  83.5472813
 119.0776404  72.9907832 100.3612262 118.9773131  73.9402189 100.2924353
 118.8597946  72.6626071  99.4888332 118.2789475  70.2392757  76.9452939
 119.1408639  70.5647656  77.2048756 118.4639819  69.4524253  76.4326005
 110.2956891  78.3215097  89.2233128 109.6020362  77.9069050  88.7103082
 111.0429882  78.3635634  88.6266547 118.9407674  76.4204971  99.1777323
 118.4574755  77.2205331  99.3841212 119.0268613  76.4312916  98.2244767
 112.2093633  78.2533351  87.0999143 112.1864321  78.3521038  86.1481026
 112.5194270  79.0998502  87.4216309 114.8681011  80.3109506  91.2145757
 115.8224265  80.2793448  91.1475689 114.6693535  79.8500130  92.0295983
 115.4580393  78.8810622  93.7816555 116.2773282  79.3754701  93.8051392
 115.7317201  77.9642590  93.7534122 113.2231240  85.8529125  88.2315955
 113.0885708  85.0929526  87.6653953 112.8063302  86.5770025  87.7644744
 116.3800366  86.7498442  88.4434398 116.2632750  87.6943875  88.3413088
 115.5592812  86.4472004  88.8320197 110.7115308  73.2148756  94.4808752
 111.3574171  72.7047710  94.9695977 110.5032459  73.9517437  95.0552177
 119.2318918  67.4788800  80.2332648 119.2197588  68.4230640  80.3900919
 120.1242340  67.2958946  79.9392109 117.4054880  87.4026704  91.6590326
 118.3082127  87.4350315  91.9756821 117.1792250  86.4727155  91.6736662
 119.1608482  86.1557691  88.3200405 118.2104113  86.1559552  88.2064777
 119.4640968  85.4090425  87.8036439 115.0512799  70.3616373  98.5783766
 115.9144260  70.0053178  98.7887091 114.4778209  70.0230268  99.2659170
 121.9096232  89.3878610  90.5669402 122.1604270  90.2725620  90.8326978
 122.4455780  89.2083212  89.7944493 119.1231276  92.5610513  87.0965357
 119.8102316  92.2472243  86.5086372 118.9679405  93.4651877  86.8232608
 118.6999252  90.6411106  89.3682824 118.7383352  90.1074697  90.1619942
 118.1939545  90.1146311  88.7493801 121.9512889  96.9694755  87.4691074
 121.1144797  96.5416930  87.2875075 121.9236534  97.1627199  88.4061865
 121.2662385  90.0304103  87.2540006 120.9465170  89.1769411  86.9614380
 120.7195813  90.2452681  88.0097974 121.1350645  93.6507015  89.2233128
 120.4414117  93.2360968  88.7103082 121.8823636  93.6927551  88.6266547
 121.5509062  88.5440673  94.4808752 122.1967926  88.0339627  94.9695977
 121.3426213  89.2809355  95.0552177  74.6519820   2.6925891  70.9139149
  74.5743849   3.6433716  70.9927630  74.0481463   2.3471763  71.5714076
  72.2906649   5.4411285  75.0587351  72.5303248   6.0729809  75.7366370
  71.4475846   5.0899325  75.3452711  72.7651481   1.4659287  72.3886130
  72.0961857   1.9505415  71.9050170  72.6264351   1.7128508  73.3029508
  76.9056750   3.5003031  78.9868788  77.4575058   3.6634652  79.7517874
  77.2462944   4.0907469  78.3148813  77.0743173   3.2199422  73.2322819
  76.6348164   2.7275801  73.9255676  77.8251290   2.6772390  72.9914894
  69.8656223   1.5423577  74.9561262  69.7310691   0.7823978  74.3899260
  69.4488286   2.2664477  74.4890051  73.0225349   2.4392894  75.1679704
  72.9057733   3.3838327  75.0658395  72.2017795   2.1366456  75.5565504
  74.0479863   3.0921156  78.3835633  74.9507110   3.1244766  78.7002128
  73.8217233   2.1621607  78.3981969  88.3475865   7.6340109  76.0452999
  88.0094377   7.5181174  75.1573533  89.2165633   7.2331274  76.0254005
  84.2062681   9.4875586  72.0349889  83.6427546   9.3965523  71.2666177
  84.0915076   8.6675490  72.5152382  88.8295648   8.7874961  82.0039204
  88.8184289   8.3927759  81.1319708  88.9916288   8.0541034  82.5972975
  81.7527113  10.9826777  74.8734110  82.5448405  10.6417602  74.4580409
  81.9923763  11.0921752  75.7936263  89.7862239  13.1546553  67.3464354
  89.1350219  13.7400634  66.9598368  90.5806602  13.6852748  67.4059392
  83.7117867  10.2435690  67.7451489  84.4848743   9.6964678  67.6064365
  84.0643265  11.1079940  67.9565950  85.5502909  11.5712073  80.9518388
  85.2592775  12.4757704  80.8365054  86.1859894  11.6128600  81.6662458
  86.4759116   8.9488921  77.5419748  87.0722688   8.7244944  76.8276711
  86.5334088   8.2073667  78.1445196  86.0484144   6.4028357  65.3769939
  86.3009665   5.8809878  64.6153402  85.1108704   6.2394502  65.4796622
  91.2637505  10.8436985  67.8833339  90.6283338  10.9171612  68.5954243
  90.9334911  11.4330584  67.2052418  85.7680433   8.3056463  67.5794314
  85.6516691   7.6301366  68.2475398  85.8782693   7.8188836  66.7626467
  88.1111974   7.7666610  71.2841003  87.7470181   7.2397231  71.9953924
  88.9679090   7.3765079  71.1107488  90.5092794  11.2573488  77.9468182
  90.2093517  12.1598527  77.8383989  90.1643854  10.9905671  78.7989335
  83.9605276   7.7087285  73.9804886  83.0355772   7.5763499  74.1882578
  84.2089689   8.4881504  74.4774829  81.3214087   7.3520559  74.8148675
  81.4506468   7.6055038  75.7288087  80.6411538   7.9448267  74.4953330
  85.4913574  18.0217809  70.9139149  85.4137604  18.9725634  70.9927630
  84.8875218  17.6763681  71.5714076  86.2377176   8.0031127  83.1318483
  86.9791861   8.5416171  82.8553307  85.5314162   8.6297416  83.2890035
  91.7132516  10.1460268  81.7290645  92.1215872   9.7042678  80.9845277
  90.9909777   9.5712895  81.9824838  92.0361330  10.7061458  75.4842934
  91.4070193  10.8707173  74.7819002  91.6486992  11.1203068  76.2553898
  95.9150562  11.6415896  72.8387297  95.2301600  12.0214798  72.2884331
  95.9994412  12.2511223  73.5719245  93.1701494   9.2875855  79.4382641
  93.3818389   9.9307615  78.7617022  93.1231242   8.4538172  78.9704571
  87.5889292  10.4435867  72.7493019  88.0527638  10.7223570  71.9597641
  87.3246090   9.5419311  72.5666109  84.4813373   9.9907348  75.6872782
  85.0514730  10.4194616  75.0490267  85.0721485   9.7089933  76.3856968
  86.5258178   6.5659019  69.5582584  87.2282222   7.0180063  70.0256510
  86.1938807   5.9242838  70.1862477  84.9738540   5.1570776  83.9333793
  84.3437200   5.8387056  84.1669190  84.8674628   5.0453857  82.9886932
  80.2683512   4.8242572  74.8599717  79.4782566   5.0800100  74.3839828
  80.7594760   5.6390909  74.9651758  94.2847322  12.1647811  77.6104998
  95.1064766  11.7627998  77.3287680  94.2809725  12.0616045  78.5621114
  82.2198258   5.1887151  71.8183194  81.4229421   5.3005845  72.3366690
  81.9923850   5.5273803  70.9524085  88.0503925  11.7131854  79.7665709
  88.1148358  12.1752261  80.6023881  87.3414849  11.0829219  79.8948019
  78.5521215   5.0773062  77.2914708  78.8029254   5.9620072  77.5572284
  79.0880764   4.8977664  76.5189800  87.7651943  13.3799962  69.6344689
  87.6297618  14.2251497  70.0629537  88.3061755  13.5819239  68.8710623
  81.2181340  10.8975400  70.2072614  81.7305861  11.6918650  70.3578179
  81.8704053  10.2001690  70.1406216  83.0276225  14.0141156  72.2895367
  83.2042853  14.9359121  72.1016351  83.8233059  13.6999575  72.7189747
  82.3128582   6.0605788  82.1657531  82.1982097   5.1591045  82.4664630
  81.4573099   6.3069485  81.8142347  89.3920419  14.0023528  83.7645031
  88.9484274  13.2159907  83.4465936  90.0537633  14.1902679  83.0988922
  84.1507541  15.5319330  78.2905710  84.7014966  15.4036393  77.5182704
  83.3119016  15.8314219  77.9400603  91.4901657  14.2826328  81.7926432
  91.4720133  15.1035209  81.3006702  92.4121577  14.1580403  82.0176574
  87.9474712  11.7970457  82.6349941  88.4803048  11.0358746  82.4049249
  87.4188793  11.5044109  83.3774095  79.1830257   9.2264054  70.9832185
  80.0205479   9.6361062  70.7665892  79.3608525   8.2863496  70.9532379
  96.0528963   9.6471489  68.6069191  95.2758406   9.3082649  68.1624353
  96.7320444   9.6524112  67.9324156  89.3127424  10.9256450  70.1468753
  88.7848786  10.1909210  69.8341990  88.8114927  11.7031126  69.9008721
  94.2920270   9.1205470  75.2635799  93.6343945   9.8104732  75.3515928
  95.0960670   9.5101902  75.6069786  87.4580024   8.7436660  63.1503726
  86.5507086   8.5125914  63.3494875  87.9551056   7.9474279  63.3377707
  90.3648103  17.4534167  66.0700412  89.6909802  17.7565864  66.6785370
  90.7513925  18.2563248  65.7205869  88.6368258   8.8449255  67.6727716
  87.7279477   8.5608288  67.7700186  88.6663342   9.2648334  66.8131023
  93.8687525  12.4555845  71.4418884  93.4149852  11.6146754  71.4984074
  93.2381492  13.0917243  71.7793664  92.3120465  14.2932341  72.3768702
  92.6043439  14.8537398  71.6581067  92.8219085  14.5860902  73.1321861
  79.2056428   6.5654769  71.6542918  79.0080828   5.9724130  70.9293985
  78.6503092   6.2606979  72.3718857  88.3344346  10.3857999  65.0115795
  87.8963776   9.6693858  64.5521432  89.0754787  10.6134114  64.4500886
  87.2754090  15.0712692  73.4662155  87.2330269  15.2973539  72.5370687
  88.1916789  14.8376067  73.6147956  96.4786840  10.7291723  76.0803385
  96.9123347  10.6367012  76.9286439  97.1918421  10.7049223  75.4423401
  85.3919891  11.9475721  73.2624118  86.1860489  11.4526042  73.0606693
  84.6811583  11.4193585  72.8991823  90.2114735  14.3293817  77.6136485
  90.2651757  14.8984753  78.3814201  89.3429516  14.4995702  77.2490522
  81.7002654   6.0918803  69.3383870  80.7700242   6.0303259  69.5553832
  81.7960126   5.5694756  68.5420512  97.3402390  10.7715423  78.6136270
  97.5338280  11.6761234  78.8595545  97.2403008  10.3122843  79.4474855
  92.4017498  10.9222166  84.1877151  92.2503005  10.6932718  83.2707234
  92.3922178  11.8792768  84.2008496  89.1702835   8.4954079  79.1723417
  90.0994895   8.6465239  78.9992384  88.7493865   8.5838100  78.3172064
  87.9691167  12.5204743  76.9421955  87.8302252  12.1523528  77.8147893
  87.1805763  13.0352383  76.7705913  88.5639318  17.6213840  68.2847491
  88.7391074  17.1501883  69.0993114  87.8772107  18.2479606  68.5128752
  89.5196382  11.8986346  74.3310792  89.1846214  11.8587116  75.2268442
  89.0200327  11.2331062  73.8581203  83.4940626   7.3053976  79.8563374
  83.3560424   6.5734215  80.4574913  84.4045549   7.2162876  79.5747561
  92.4555573   9.2442380  64.6047852  91.8384744   8.5189209  64.5080905
  91.9872062  10.0051741  64.2614926  86.1222926   7.0173935  79.3447053
  86.8322545   6.3767128  79.3033672  86.0792234   7.2686830  80.2673234
  94.1109705  13.9541289  82.2653633  94.0522251  13.2700509  81.5984216
  94.5129223  14.6960279  81.8134258  83.1300404  20.7703203  75.0587351
  83.3697002  21.4021727  75.7366370  82.2869600  20.4191243  75.3452711
  94.1127112  11.9180873  80.4967612  93.2253891  11.5806794  80.6194011
  94.6825663  11.1863904  80.7336378  75.7656259   8.2504964  73.8210664
  76.4527299   7.9366694  73.2331679  75.6104388   9.1546329  73.5477915
  87.6428266  16.5782325  77.4628855  87.5698437  17.3837297  77.9748160
  87.2005659  16.7774291  76.6376877  87.4318045  15.8154095  70.9731677
  86.6485567  16.3575775  71.0669901  88.1310790  16.3328075  71.3725918
  90.1026949  16.4769159  79.6187014  90.8154921  17.1116624  79.5462916
  89.6116978  16.5733025  78.8027016  91.8244476  10.3820412  71.1904306
  90.8900755  10.5021874  71.0209010  92.0021145   9.4792879  70.9264316
  85.1538863  14.2263603  80.4392585  85.8548322  14.8600086  80.5921979
  84.6833978  14.5678334  79.6788224  93.2793259  12.5681552  68.7240492
  93.5553102  12.4538147  69.6334366  92.4097757  12.1699037  68.6852665
  89.9147323  16.8167903  72.3673306  90.0969717  15.9989559  72.8301058
  90.7380309  17.0335595  71.9298196  90.2489488  15.7436088  69.6288354
  90.7777254  15.2328543  69.0158516  90.5117708  15.4278619  70.4933887
  89.0027722   7.5228021  84.7511172  88.3268359   7.4222150  85.4213548
  89.8255356   7.3667235  85.2147170  80.7506581  13.7599958  77.3723688
  81.3360018  13.0143646  77.5051592  80.5531419  14.0703914  78.2560351
  83.6045236  16.7951205  72.3886130  82.9355611  17.2797333  71.9050170
  83.4658106  17.0420425  73.3029508  75.3424235   6.3305558  76.0928131
  75.3808335   5.7969149  76.8865249  74.8364528   5.8040763  75.4739108
  87.7450505  18.8294949  78.9868788  88.2968813  18.9926570  79.7517874
  88.0856698  19.4199386  78.3148813  92.5961379  13.6556206  84.8417443
  93.1401283  14.2686164  84.3472398  92.0148224  14.2135784  85.3584456
  78.9732813   5.0569660  69.1682062  79.2686254   4.1480338  69.1149116
  78.0720849   5.0357399  68.8463064  90.8818892  16.7776924  75.9732470
  90.7570031  15.9766664  75.4643416  91.5397983  17.2723117  75.4846440
  92.9453800  14.5785944  77.6012021  91.9984136  14.4591295  77.5290347
  93.2936573  13.6908442  77.6838282  89.9500234  14.3738660  73.8016373
  89.8025196  13.4455368  73.9823943  90.7753727  14.3958751  73.3173448
  93.5534355  15.1967219  74.8881246  94.4780903  14.9910080  74.7505697
  93.3849659  14.9483620  75.7970587  84.6860969   5.1862211  75.3719235
  84.5405550   5.5002514  76.2643516  84.2086173   5.8047112  74.8190133
  93.3429672  15.7152887  70.2443337  93.5166549  15.1499309  69.4917189
  93.8358563  16.5153781  70.0622827  79.1606631   7.7267556  78.3106896
  78.6160099   8.5027364  78.4427170  80.0385981   8.0738360  78.1526017
  94.3304844  15.0319651  67.3440235  95.0255749  15.6526344  67.5627550
  94.6727994  14.1815002  67.6192613  79.9472653   6.8537452  81.2037053
  79.2054389   7.0020087  81.7901683  79.6265398   7.1145717  80.3403802
  96.2296267  12.4819356  68.8727566  96.7547591  12.8206629  68.1476886
  96.1418620  11.5466372  68.6890701  87.8916316  16.3953430  81.0017443
  88.2003442  16.1502577  81.8740142  88.6891798  16.6000069  80.5136313
  87.9136928  18.5491340  73.2322819  87.4741918  18.0567718  73.9255676
  88.6645045  18.0064307  72.9914894  80.3929267  14.7402881  73.2347447
  81.2187287  14.4406652  72.8546091  80.0423319  13.9710503  73.6837236
  85.3610800  14.0929349  75.3045121  84.7390809  13.4300054  75.0047349
  86.0315667  14.1190481  74.6218769  78.5937872  12.6589207  74.1936381
  77.7569780  12.2311381  74.0120382  78.5661517  12.8521650  75.1307172
  95.9190173  13.1152260  84.1778764  95.1285717  13.0976399  83.6383263
  95.6823528  13.6540554  84.9327801  96.0388048   9.9644726  81.4911493
  96.0886053   9.7994734  82.4327015  95.9301972   9.0971985  81.1009373
  84.9224307  12.6433272  68.7803581  85.0712427  13.3268737  68.1270254
  85.7290750  12.6238362  69.2953037  97.5406245  12.3841668  81.7353514
  97.2491053  12.7471649  82.5716975  96.9278376  11.6708676  81.5566846
  82.6776940   8.6698450  69.7864650  82.4322982   7.7660780  69.9844860
  82.8472855   8.6715600  68.8444128  88.4219713  15.1381403  66.2515329
  87.8493680  15.7571590  65.7985801  88.9952506  15.6880764  66.7855251
  91.6416972  15.4218553  67.3823911  92.5747645  15.3564114  67.5856787
  91.5540185  16.2574820  66.9238444  94.2704989  14.7384423  64.3427859
  94.1918620  14.4044287  65.2363617  95.0914656  15.2306191  64.3419331
  88.6905204  10.5259961  85.0532038  89.6108213  10.7038560  85.2472085
  88.6554787   9.5816007  84.9011738  77.9087369   5.7198555  73.9785313
  77.5890153   4.8663863  73.6859687  77.3620797   5.9347133  74.7343280
  81.6867276   8.4360996  77.6954819  81.9053286   9.3678104  77.7142853
  82.0993050   8.0768971  78.4809623  77.7775629   9.3401467  75.9478435
  77.0839100   8.9255419  75.4348389  78.5248620   9.3822003  75.3511853
  86.4226411   7.4391341  85.9022630  85.9393493   8.2391701  86.1086519
  86.5087351   7.4499286  84.9490074  79.6912371   9.2719720  73.8244449
  79.6683059   9.3707408  72.8726333  80.0013008  10.1184871  74.1461616
  82.3499749  11.3295875  77.9391064  83.3043003  11.2979818  77.8720995
  82.1512273  10.8686499  78.7541290  82.9399131   9.8996991  80.5061862
  83.7592020  10.3941070  80.5296699  83.2135939   8.9828960  80.4779429
  80.7049978  16.8715495  74.9561262  80.5704446  16.1115896  74.3899260
  80.2882040  17.5956395  74.4890051  91.8408941  12.0552418  63.9637837
  92.5444791  12.2602421  64.5795493  91.1171590  12.6229180  64.2286921
  83.8619104  17.7684812  75.1679704  83.7451488  18.7130244  75.0658395
  83.0411550  17.4658374  75.5565504  93.7495638  12.4934948  66.0136297
  94.5841242  12.0616146  65.8313772  93.5879981  12.3216961  66.9413192
  93.4041530   8.9967061  67.3792636  93.3490334   8.8311332  66.4381080
  92.7787586   9.7043094  67.5354826  78.1934045   4.2335125  81.2054059
  78.8392909   3.7234079  81.6941284  77.9851196   4.9703807  81.7797484
  90.7187438  11.3015973  86.7046199  91.5878597  11.4756625  86.3432834
  90.2394189  12.1210390  86.5821928  84.8873618  18.4213074  78.3835633
  85.7900864  18.4536684  78.7002128  84.6610988  17.4913525  78.3981969
  86.6427220  17.1744060  75.0445711  85.6922851  17.1745922  74.9310084
  86.9459706  16.4276795  74.5281746 102.3779913  23.0104599  76.1091474
 103.0158323  22.8911346  75.4054814 102.2600756  23.9585443  76.1679426
  99.1869620  22.9632027  76.0452999  98.8488131  22.8473092  75.1573533
 100.0559388  22.5623192  76.0254005  95.0456435  24.8167503  72.0349889
  94.4821300  24.7257440  71.2666177  94.9308830  23.9967408  72.5152382
  99.6689403  24.1166879  82.0039204  99.6578043  23.7219677  81.1319708
  99.8310042  23.3832951  82.5972975  92.5920867  26.3118695  74.8734110
  93.3842159  25.9709520  74.4580409  92.8317517  26.4213670  75.7936263
 100.6255994  28.4838471  67.3464354  99.9743974  29.0692551  66.9598368
 101.4200357  29.0144666  67.4059392  94.5511621  25.5727608  67.7451489
  95.3242497  25.0256595  67.6064365  94.9037020  26.4371857  67.9565950
  96.3896664  26.9003990  80.9518388  96.0986530  27.8049621  80.8365054
  97.0253648  26.9420518  81.6662458  97.3152871  24.2780839  77.5419748
  97.9116443  24.0536861  76.8276711  97.3727842  23.5365584  78.1445196
  96.8877899  21.7320274  65.3769939  97.1403420  21.2101796  64.6153402
  95.9502458  21.5686420  65.4796622 101.9321182  20.7356053  73.1844682
 102.7184271  20.3175476  72.8335099 102.1959886  21.6402145  73.3526330
 102.1031259  26.1728903  67.8833339 101.4677092  26.2463529  68.5954243
 101.7728666  26.7622502  67.2052418 107.3329609  20.6731286  74.0877660
 108.0654781  20.1030503  74.3215490 106.5768965  20.2852886  74.5284166
  96.6074188  23.6348380  67.5794314  96.4910446  22.9593284  68.2475398
  96.7176448  23.1480754  66.7626467  98.9505729  23.0958527  71.2841003
  98.5863936  22.5689148  71.9953924  99.8072845  22.7056996  71.1107488
 104.8555029  14.3852860  78.5472269 104.5238354  15.2548271  78.3233484
 104.2600643  14.0689144  79.2266299  98.5911216  18.1248427  66.2802351
  98.7585618  18.9928663  66.6472822  98.4008385  18.2875709  65.3563641
 101.3486549  26.5865406  77.9468182 101.0487272  27.4890445  77.8383989
 101.0037608  26.3197589  78.7989335  94.7999030  23.0379203  73.9804886
  93.8749527  22.9055417  74.1882578  95.0483443  23.8173422  74.4774829
 104.7483693  19.1047946  75.6265619 103.8400570  19.0363355  75.3324380
 104.6971288  19.5819891  76.4547445  98.5700436  20.5806085  67.2649018
  98.4500062  21.0263135  68.1034498  97.8753025  20.9291402  66.7062556
  92.1607841  22.6812476  74.8148675  92.2900222  22.9346955  75.7288087
  91.4805293  23.2740184  74.4953330  96.3307329  33.3509726  70.9139149
  96.2531358  34.3017551  70.9927630  95.7268972  33.0055599  71.5714076
  98.8224558  20.5237592  83.5700516  98.0457892  21.0831512  83.5603381
  99.4615121  21.0094375  84.0915386 106.6145339  17.3064385  77.4043493
 105.9719719  17.5996918  76.7583288 106.1100267  17.1917305  78.2096690
 104.2685503  21.0527558  68.0929352 105.1803359  21.2854944  67.9177050
 103.7595150  21.6364602  67.5304431  97.0770931  23.3323045  83.1318483
  97.8185615  23.8708089  82.8553307  96.3707916  23.9589334  83.2890035
 102.5526270  25.4752186  81.7290645 102.9609626  25.0334596  80.9845277
 101.8303532  24.9004813  81.9824838  98.9057340  20.4124792  79.1024202
  99.7518536  20.8364206  79.2458851  98.8455978  19.7558417  79.7962765
 102.8755085  26.0353376  75.4842934 102.2463947  26.1999090  74.7819002
 102.4880747  26.4494986  76.2553898 106.7544317  26.9707814  72.8387297
 106.0695355  27.3506715  72.2884331 106.8388166  27.5803141  73.5719245
 102.0556786  18.0729161  80.7605375 101.8117718  18.8271221  80.2239651
 102.3316716  18.4514508  81.5952622 104.0095248  24.6167773  79.4382641
 104.2212144  25.2599533  78.7617022 103.9624997  23.7830090  78.9704571
 101.6121477  17.2285594  76.3419213 100.7505956  17.5266847  76.6335951
 101.6383912  17.4455993  75.4100246  98.4283047  25.7727784  72.7493019
  98.8921392  26.0515487  71.9597641  98.1639845  24.8711229  72.5666109
  95.3207128  25.3199266  75.6872782  95.8908485  25.7486534  75.0490267
  95.9115240  25.0381850  76.3856968  97.3651933  21.8950937  69.5582584
  98.0675976  22.3471980  70.0256510  97.0332561  21.2534755  70.1862477
  95.8132294  20.4862693  83.9333793  95.1830955  21.1678974  84.1669190
  95.7068382  20.3745775  82.9886932  91.1077267  20.1534489  74.8599717
  90.3176321  20.4092018  74.3839828  91.5988514  20.9682827  74.9651758
 105.1241076  27.4939728  77.6104998 105.9458520  27.0919916  77.3287680
 105.1203479  27.3907963  78.5621114  93.0592012  20.5179069  71.8183194
  92.2623175  20.6297763  72.3366690  92.8317604  20.8565721  70.9524085
  98.8897680  27.0423772  79.7665709  98.9542112  27.5044179  80.6023881
  98.1808604  26.4121137  79.8948019  89.3914970  20.4064980  77.2914708
  89.6423008  21.2911990  77.5572284  89.9274518  20.2269581  76.5189800
 113.2147069  23.8378477  73.9589970 112.4610778  23.2685875  73.8033974
 113.3494611  23.8041141  74.9060604  98.6045697  28.7091879  69.6344689
  98.4691372  29.5543415  70.0629537  99.1455510  28.9111157  68.8710623
  95.0913037  14.7883459  86.2959044  94.6979983  14.2349658  86.9706689
  95.9079177  15.0994038  86.6865562  92.0575095  26.2267317  70.2072614
  92.5699615  27.0210568  70.3578179  92.7097808  25.5293608  70.1406216
  93.8669980  29.3433074  72.2895367  94.0436608  30.2651038  72.1016351
  94.6626813  29.0291493  72.7189747  98.0080998  16.2041338  83.8879301
  98.7490711  16.8048491  83.8083763  98.2398921  15.4618976  83.3297343
  93.1522336  21.3897705  82.1657531  93.0375851  20.4882963  82.4664630
  92.2966854  21.6361402  81.8142347 100.2314174  29.3315446  83.7645031
  99.7878028  28.5451824  83.4465936 100.8931387  29.5194596  83.0988922
  94.9901295  30.8611247  78.2905710  95.5408720  30.7328311  77.5182704
  94.1512771  31.1606136  77.9400603 102.3295412  29.6118246  81.7926432
 102.3113887  30.4327127  81.3006702 103.2515332  29.4872321  82.0176574
  98.7868466  27.1262375  82.6349941  99.3196803  26.3650663  82.4049249
  98.2582547  26.8336027  83.3774095 101.9538161  12.2322441  78.1643583
 101.6102430  13.1224083  78.0882693 102.3217124  12.0424099  77.3013168
  90.0224012  24.5555972  70.9832185  90.8599234  24.9652980  70.7665892
  90.2002279  23.6155414  70.9532379 101.9188444  22.2231052  66.6716018
 101.4035067  22.9935657  66.9104405 101.6465752  21.5496188  67.2949079
  99.5035555  17.0680753  71.7301256  98.6477151  16.6787603  71.5506895
  99.9162507  17.1472714  70.8701042 101.0334701  14.6027096  76.1292816
 100.5299497  14.5657231  75.3160621 101.3265308  15.5119839  76.1889473
  97.2777587  14.6865826  75.1358998  98.1430584  14.4908635  74.7764887
  97.3455096  14.4576178  76.0628354 106.8922718  24.9763407  68.6069191
 106.1152161  24.6374566  68.1624353 107.5714199  24.9816030  67.9324156
 101.7074747  20.0958144  68.4975799 101.4024882  20.4104294  69.3485942
 102.6605189  20.1739564  68.5403132 100.1521179  26.2548368  70.1468753
  99.6242540  25.5201127  69.8341990  99.6508681  27.0323044  69.9008721
 105.1314025  24.4497388  75.2635799 104.4737699  25.1396650  75.3515928
 105.9354424  24.8393820  75.6069786  94.8839906  16.9168034  72.5075364
  95.4583658  16.6943215  71.7748557  95.4710889  16.9856728  73.2603966
 103.9419484  22.8041761  73.3139741 104.4551365  23.4371753  73.8161451
 104.5920707  22.2042956  72.9483101  95.2109493  18.9472495  66.5271250
  94.3746806  19.2847181  66.8480524  95.0714263  18.8121475  65.5898387
  97.1862574  13.7909283  71.2350434  96.5326986  13.4758300  70.6107049
  97.1443048  13.1685023  71.9610257  98.2973779  24.0728578  63.1503726
  97.3900841  23.8417831  63.3494875  98.7944811  23.2766197  63.3377707
 101.2041858  32.7826085  66.0700412 100.5303557  33.0857782  66.6785370
 101.5907680  33.5855165  65.7205869 100.4200314  20.2791216  75.5598081
  99.5022876  20.5006163  75.4019769 100.8360458  20.3537527  74.7009789
 101.2035362  21.6782632  70.6900762 101.9507181  22.1904029  70.3807884
 101.4726952  21.3566685  71.5505155  99.4762012  24.1741173  67.6727716
  98.5673232  23.8900206  67.7700186  99.5057096  24.5940251  66.8131023
 104.7081280  27.7847762  71.4418884 104.2543607  26.9438672  71.4984074
 104.0775247  28.4209161  71.7793664 103.6514199  18.7139748  72.6719551
 102.9136956  18.2017135  73.0029794 103.9040973  18.2740130  71.8602828
 103.1514219  29.6224259  72.3768702 103.4437193  30.1829316  71.6581067
 103.6612840  29.9152820  73.1321861  90.0450183  21.8946687  71.6542918
  89.8474583  21.3016048  70.9293985  89.4896847  21.5898897  72.3718857
  98.0246906  21.7869793  73.7737511  98.0795516  20.8343630  73.6979988
  97.2138108  21.9429232  74.2578810  99.1738100  25.7149916  65.0115795
  98.7357530  24.9985775  64.5521432  99.9148541  25.9426031  64.4500886
  95.9639266  20.4046853  71.5327890  95.1507132  20.7041024  71.9393082
  96.4598261  20.0102542  72.2502372  98.1147844  30.4004610  73.4662155
  98.0724023  30.6265456  72.5370687  99.0310543  30.1667985  73.6147956
 101.5613478  20.8688678  80.3642784 101.9162866  21.0960151  81.2237250
 102.2085609  21.2007054  79.7420039 107.2911215  23.9907113  71.0692113
 107.1529114  24.1808709  70.1413302 106.9347434  24.7526496  71.5260164
  95.4553341  17.9765209  77.1489125  96.0952720  17.8353968  76.4512088
  94.6230872  17.6899722  76.7727727 107.3180595  26.0583640  76.0803385
 107.7517101  25.9658930  76.9286439 108.0312175  26.0341141  75.4423401
  96.2313645  27.2767639  73.2624118  97.0254244  26.7817959  73.0606693
  95.5205337  26.7485502  72.8991823 101.0508489  29.6585735  77.6136485
 101.1045512  30.2276671  78.3814201 100.1823271  29.8287620  77.2490522
  92.5396408  21.4210721  69.3383870  91.6093997  21.3595176  69.5553832
  92.6353880  20.8986674  68.5420512  92.4581958  17.9465534  71.9262112
  92.7188775  18.8610867  71.8171272  93.2799130  17.4789976  72.0758725
  93.9306883  19.3603291  79.0960936  94.6029936  19.1520653  78.4473585
  93.1036669  19.1625377  78.6566169 108.1796144  26.1007341  78.6136270
 108.3732034  27.0053152  78.8595545 108.0796762  25.6414760  79.4474855
  99.8332455  15.9865232  81.1126597  99.1860370  16.6855181  81.0191074
 100.6033470  16.4201376  81.4802846 103.2411253  26.2514084  84.1877151
 103.0896759  26.0224636  83.2707234 103.2315932  27.2084685  84.2008496
 100.0096589  23.8245997  79.1723417 100.9388649  23.9757156  78.9992384
  99.5887619  23.9130017  78.3172064  98.8084921  27.8496661  76.9421955
  98.6696007  27.4815445  77.8147893  98.0199517  28.3644300  76.7705913
  99.4033073  32.9505758  68.2847491  99.5784829  32.4793801  69.0993114
  98.7165861  33.5771524  68.5128752 100.3590136  27.2278264  74.3310792
 100.0239969  27.1879034  75.2268442  99.8594082  26.5622980  73.8581203
  94.3334380  22.6345894  79.8563374  94.1954178  21.9026133  80.4574913
  95.2439304  22.5454794  79.5747561 103.2949328  24.5734298  64.6047852
 102.6778498  23.8481126  64.5080905 102.8265816  25.3343658  64.2614926
  96.9616681  22.3465853  79.3447053  97.6716299  21.7059045  79.3033672
  96.9185989  22.5978748  80.2673234 104.9503459  29.2833206  82.2653633
 104.8916006  28.5992427  81.5984216 105.3522978  30.0252196  81.8134258
  95.6745615  19.3331071  81.1642693  95.1382972  18.8821809  81.8164289
  95.0862323  19.4676980  80.4213157  93.9694158  36.0995120  75.0587351
  94.2090756  36.7313644  75.7366370  93.1263355  35.7483160  75.3452711
  95.0847874  18.7919722  63.7269156  94.2077340  18.6708523  63.3631403
  95.5605627  18.0005801  63.4748045 104.9520867  27.2472790  80.4967612
 104.0647645  26.9098712  80.6194011 105.5219418  26.5155822  80.7336378
  86.6050014  23.5796882  73.8210664  87.2921054  23.2658612  73.2331679
  86.4498143  24.4838247  73.5477915  91.4084736  18.4687079  78.2495687
  91.3242925  17.8612748  77.5146097  90.5867442  18.9596097  78.2505184
  98.4822020  31.9074243  77.4628855  98.4092192  32.7129214  77.9748160
  98.0399413  32.1066209  76.6376877  98.2711800  31.1446013  70.9731677
  97.4879322  31.6867693  71.0669901  98.9704545  31.6619992  71.3725918
 101.5808450  16.9540642  73.6165882 102.0777149  16.2010605  73.2966953
 100.8095431  16.9904959  73.0509092 109.4338207  22.6581008  75.2584174
 109.4228084  23.5405723  74.8878107 108.5655587  22.3052559  75.0638711
 100.9420704  31.8061077  79.6187014 101.6548676  32.4408542  79.5462916
 100.4510732  31.9024943  78.8027016 102.6638231  25.7112329  71.1904306
 101.7294509  25.8313792  71.0209010 102.8414899  24.8084796  70.9264316
  98.1643419  19.0958025  73.3437567  97.7941206  18.5429066  74.0318472
  98.6602511  18.4916159  72.7912567 106.0510782  21.5529649  71.7254340
 106.5171234  22.3857640  71.6514643 106.5018282  21.0874630  72.4299598
  95.9932617  29.5555520  80.4392585  96.6942077  30.1892003  80.5921979
  95.5227732  29.8970252  79.6788224 104.1187013  27.8973470  68.7240492
 104.3946857  27.7830065  69.6334366 103.2491512  27.4990955  68.6852665
 104.0227445  13.9210236  75.7645241 103.1090524  14.1514463  75.9327448
 104.4520546  14.0048680  76.6159274 103.7933903  22.1100128  78.2645135
 103.1405353  22.3576035  77.6097588 104.1714283  21.2964266  77.9307613
 100.7541077  32.1459821  72.3673306 100.9363472  31.3281477  72.8301058
 101.5774063  32.3627513  71.9298196 101.0883243  31.0728006  69.6288354
 101.6171009  30.5620461  69.0158516 101.3511462  30.7570536  70.4933887
  99.8421476  22.8519939  84.7511172  99.1662113  22.7514068  85.4213548
 100.6649110  22.6959152  85.2147170  91.5900335  29.0891875  77.3723688
  92.1753772  28.3435563  77.5051592  91.3925174  29.3995832  78.2560351
  94.4438990  32.1243123  72.3886130  93.7749366  32.6089250  71.9050170
  94.3051860  32.3712343  73.3029508  86.1817990  21.6597475  76.0928131
  86.2202089  21.1261066  76.8865249  85.6758283  21.1332681  75.4739108
  98.5844259  34.1586866  78.9868788  99.1362567  34.3218488  79.7517874
  98.9250453  34.7491304  78.3148813  93.5608752  16.5062016  79.5890673
  93.6250079  17.3676847  79.1768071  93.4975873  15.8936018  78.8563032
  93.0361025  18.5785149  83.2363707  93.6633064  18.1962226  83.8501232
  92.1788944  18.3599350  83.6019400 103.4355133  28.9848124  84.8417443
 103.9795037  29.5978082  84.3472398 102.8541978  29.5427702  85.3584456
  89.8126568  20.3861578  69.1682062  90.1080009  19.4772256  69.1149116
  88.9114603  20.3649317  68.8463064 101.7212646  32.1068842  75.9732470
 101.5963786  31.3058582  75.4643416 102.3791737  32.6015035  75.4846440
  93.3420815  18.4617574  75.1509611  92.6207400  19.0753542  75.0117084
  94.1314070  18.9975339  75.0726257 103.7847555  29.9077862  77.6012021
 102.8377890  29.7883213  77.5290347 104.1330328  29.0200360  77.6838282
  96.1447128  15.7972001  81.4250262  96.6681530  16.0434297  82.1876572
  95.9259461  16.6292036  81.0053400  91.5414409  18.0675675  69.2921387
  91.2127115  17.1873054  69.1096493  91.8953780  18.0123344  70.1797776
 100.7893988  29.7030578  73.8016373 100.6418950  28.7747285  73.9823943
 101.6147482  29.7250669  73.3173448  94.6556232  18.3548645  69.6596865
  94.9952305  18.8834566  68.9375473  95.1028353  18.6929051  70.4355431
 104.3928110  30.5259137  74.8881246 105.3174657  30.3201998  74.7505697
 104.2243413  30.2775538  75.7970587  97.3499673  16.7385696  79.1099933
  97.0096493  15.9393509  79.5120613  96.6438679  17.0387407  78.5376766
  98.0016145  13.8235008  77.5627256  98.8242214  13.3495486  77.4406146
  98.2454208  14.6025492  78.0625942  96.6424379  16.8523267  67.8590158
  97.3632742  17.2304519  67.3553875  96.0189684  17.5712143  67.9625136
 100.7855502  17.5568416  68.7948490 101.0019117  18.4393054  68.4937318
 100.3049569  17.1654629  68.0654132  95.5254724  20.5154129  75.3719235
  95.3799304  20.8294432  76.2643516  95.0479927  21.1339029  74.8190133
  97.3851107  17.5056677  75.4200124  97.3712675  16.6097770  75.0832422
  98.1023535  17.5127341  76.0538410  99.2377237  17.9394017  77.4653252
  98.9795015  18.8611088  77.4637582  98.7062278  17.5424452  78.1553716
 104.1823426  31.0444804  70.2443337 104.3560304  30.4791227  69.4917189
 104.6752317  31.8445699  70.0622827  90.0000386  23.0559473  78.3106896
  89.4553854  23.8319281  78.4427170  90.8779736  23.4030278  78.1526017
  96.7888003  16.3871057  70.6887694  96.9103914  15.4587703  70.8878582
  96.4990045  16.4009743  69.7766010  99.6579193  14.0725968  73.8254414
  99.6800890  14.1365301  72.8706394 100.0747252  13.2330476  74.0194920
 110.0362817  23.8081227  71.8633637 110.4793963  23.0588552  71.4652760
 109.1589328  23.7991363  71.4807369 105.1698599  30.3611569  67.3440235
 105.8649503  30.9818261  67.5627550 105.5121749  29.5106920  67.6192613
  90.7866408  22.1829370  81.2037053  90.0448144  22.3312005  81.7901683
  90.4659152  22.4437635  80.3403802 107.0690022  27.8111274  68.8727566
 107.5941346  28.1498547  68.1476886 106.9812374  26.8758289  68.6890701
  98.7310070  31.7245348  81.0017443  99.0397197  31.4794495  81.8740142
  99.5285552  31.9291986  80.5136313  98.7530682  33.8783257  73.2322819
  98.3135673  33.3859636  73.9255676  99.5038799  33.3356225  72.9914894
  91.2323021  30.0694798  73.2347447  92.0581041  29.7698570  72.8546091
  90.8817073  29.3002421  73.6837236  96.2004555  29.4221266  75.3045121
  95.5784564  28.7591972  75.0047349  96.8709421  29.4482398  74.6218769
  89.4331626  27.9881125  74.1936381  88.5963535  27.5603299  74.0120382
  89.4055272  28.1813568  75.1307172  96.2729082  17.9003055  84.8977627
  96.3217238  18.7765177  84.5155397  96.8151596  17.3580448  84.3249270
 106.7583928  28.4444178  84.1778764 105.9679471  28.4268317  83.6383263
 106.5217282  28.9832471  84.9327801 106.8781803  25.2936644  81.4911493
 106.9279808  25.1286652  82.4327015 106.7695726  24.4263903  81.1009373
  95.7618061  27.9725190  68.7803581  95.9106182  28.6560654  68.1270254
  96.5684505  27.9530280  69.2953037 104.1685565  21.2767572  82.8070799
 105.0695428  21.1374037  82.5154797 104.2433540  21.4422027  83.7468977
  98.5028370  18.6534427  81.6523986  97.6331680  18.9467993  81.3806574
  98.7387851  19.2374872  82.3731249 108.3800000  27.7133586  81.7353514
 108.0884808  28.0763566  82.5716975 107.7672131  27.0000594  81.5566846
 109.5795682  25.2786465  74.2556084 110.4142573  25.7176270  74.4193645
 109.7154811  24.8025119  73.4364330 106.6287188  22.8366200  80.2033572
 107.1041309  23.0293847  79.3952423 105.7052753  22.8925386  79.9576956
  93.5170694  23.9990367  69.7864650  93.2716736  23.0952697  69.9844860
  93.6866609  24.0007518  68.8444128 101.2067404  14.8714044  79.1689406
 101.7249348  15.6075071  78.8435895 100.8522537  15.1778037  80.0036165
  92.7866342  19.7318725  67.2850812  92.0935587  19.8063080  66.6290848
  92.5418094  18.9679069  67.8072329  99.2613467  30.4673320  66.2515329
  98.6887434  31.0863507  65.7985801  99.8346261  31.0172682  66.7855251
 105.3288857  19.7131960  78.4361878 106.2806280  19.8130058  78.4574102
 105.1592307  18.9210229  78.9459962 103.3503236  16.7987544  78.6221279
 102.7553168  17.0792556  77.9267767 103.0652933  17.2881445  79.3938020
 102.4810727  30.7510470  67.3823911 103.4141400  30.6856032  67.5856787
 102.3933940  31.5866737  66.9238444 105.1098743  30.0676341  64.3427859
 105.0312375  29.7336204  65.2363617 105.9308410  30.5598109  64.3419331
 107.8076935  22.9338080  77.5504177 107.7753255  21.9954081  77.7363861
 108.4177558  23.0122117  76.8170002  99.6460265  21.8034133  63.5931381
 100.5919370  21.6740341  63.6619799  99.2674510  21.0648795  64.0700810
 107.9571423  19.7249123  77.5962460 107.4410472  18.9407580  77.4092389
 108.8411372  19.3967840  77.7608980 105.6182150  13.4690139  73.5558273
 105.4206971  13.1605227  74.4401605 106.2281856  14.1951778  73.6856203
 113.6253484  23.9954087  76.6910214 114.3556873  23.7339375  77.2517917
 113.0160430  23.2582809  76.7312282 111.7068782  22.1361949  77.2884665
 110.9801945  22.0017914  76.6801157 111.2916068  22.4438778  78.0941383
  99.5298958  25.8551879  85.0532038 100.4501967  26.0330478  85.2472085
  99.4948541  24.9107925  84.9011738  97.8303183  19.7284109  63.5286267
  96.9234638  19.4317222  63.6048980  98.1079164  19.4313928  62.6620553
  88.7481123  21.0490473  73.9785313  88.4283907  20.1955781  73.6859687
  88.2014551  21.2639051  74.7343280  92.5261031  23.7652914  77.6954819
  92.7447040  24.6970022  77.7142853  92.9386804  23.4060888  78.4809623
  99.4465248  14.2720999  69.6830508  98.6365977  13.9268084  70.0585754
 100.1349665  13.9628543  70.2718119 101.3755797  13.3499046  71.3054805
 101.9286835  13.7694499  71.9644828 101.6125883  12.4234794  71.3477761
  97.3988896  19.3386120  87.0857568  97.2985623  20.2880477  87.0169660
  97.1810438  19.0104358  86.2133639  96.6001967  16.5871045  63.6698246
  97.4621131  16.9125943  63.9294063  96.7852311  15.8002541  63.1571312
  88.6169383  24.6693384  75.9478435  87.9232854  24.2547337  75.4348389
  89.3642374  24.7113921  75.3511853 104.7534604  15.4599571  70.8133469
 104.1733273  16.1184375  70.4311521 104.4870536  14.6376916  70.4020886
 103.2038170  14.8604629  73.0154789 103.7037948  14.9721163  72.2069108
 103.8473778  14.5565682  73.6555598  97.2620166  22.7683258  85.9022630
  96.7787248  23.5683619  86.1086519  97.3481105  22.7791203  84.9490074
  90.5306126  24.6011638  73.8244449  90.5076814  24.6999325  72.8726333
  90.8406762  25.4476789  74.1461616  93.1893503  26.6587793  77.9391064
  94.1436757  26.6271735  77.8720995  92.9906027  26.1978417  78.7541290
  93.7792886  25.2288909  80.5061862  94.5985775  25.7232988  80.5296699
  94.0529693  24.3120877  80.4779429 103.5359482  17.6199661  69.8689817
 102.6485337  17.9049312  69.6510012 103.9513471  17.4593425  69.0217094
 106.8874018  17.6446182  73.5844156 107.6634408  18.1342635  73.8568773
 106.1622152  18.0704237  74.0416026 109.3246577  18.3573802  74.6418097
 109.9191067  18.1169538  73.9311405 109.3973160  17.6380932  75.2691633
  91.5443732  32.2007413  74.9561262  91.4098200  31.4407814  74.3899260
  91.1275794  32.9248312  74.4890051 102.6802695  27.3844336  63.9637837
 103.3838545  27.5894339  64.5795493 101.9565344  27.9521098  64.2286921
 103.5100506  23.1354197  70.0840107 103.4535707  23.5922749  69.2447740
 104.0628848  22.3744882  69.9062950 107.3205311  18.9243929  70.9090227
 107.0642246  18.5240565  71.7398434 106.6958179  19.6387723  70.7840366
 111.6317649  21.6640003  73.4161518 111.0717207  21.7333192  74.1893080
 111.0261153  21.4880987  72.6961014  94.7012858  33.0976730  75.1679704
  94.5845242  34.0422162  75.0658395  93.8805304  32.7950291  75.5565504
 104.5889393  27.8226865  66.0136297 105.4234997  27.3908064  65.8313772
 104.4273736  27.6508879  66.9413192 104.2435285  24.3258979  67.3792636
 104.1884089  24.1603250  66.4381080 103.6181340  25.0335012  67.5354826
  89.0327800  19.5627043  81.2054059  89.6786663  19.0525997  81.6941284
  88.8244951  20.2995725  81.7797484 101.5581192  26.6307891  86.7046199
 102.4272352  26.8048543  86.3432834 101.0787943  27.4502307  86.5821928
  97.5531410  13.8267088  66.9577955  97.5410080  14.7708928  67.1146226
  98.4454832  13.6437233  66.6637416  95.7267372  33.7504992  78.3835633
  96.6294619  33.7828602  78.7002128  95.5004742  32.8205442  78.3981969
  97.4820974  32.5035978  75.0445711  96.5316605  32.5037840  74.9310084
  97.7853460  31.7568713  74.5281746  93.3725291  16.7094660  85.3029073
  94.2356752  16.3531465  85.5132397  92.7990701  16.3708555  85.9904477
 113.2173668  38.3396516  76.1091474 113.8552078  38.2203264  75.4054814
 113.0994511  39.2877360  76.1679426 110.0263374  38.2923945  76.0452999
 109.6881886  38.1765009  75.1573533 110.8953142  37.8915110  76.0254005
 105.8850190  40.1459421  72.0349889 105.3215055  40.0549358  71.2666177
 105.7702585  39.3259325  72.5152382 110.5083157  39.4458796  82.0039204
 110.4971798  39.0511595  81.1319708 110.6703796  38.7124869  82.5972975
 103.4314622  41.6410613  74.8734110 104.2235914  41.3001437  74.4580409
 103.6711272  41.7505588  75.7936263 111.4649748  43.8130389  67.3464354
 110.8137728  44.3984469  66.9598368 112.2594111  44.3436584  67.4059392
 105.3905376  40.9019526  67.7451489 106.1636252  40.3548513  67.6064365
 105.7430774  41.7663775  67.9565950 107.2290418  42.2295908  80.9518388
 106.9380284  43.1341539  80.8365054 107.8647403  42.2712436  81.6662458
 108.1546625  39.6072757  77.5419748 108.7510197  39.3828779  76.8276711
 108.2121597  38.8657502  78.1445196 107.7271653  37.0612192  65.3769939
 107.9797174  36.5393713  64.6153402 106.7896212  36.8978337  65.4796622
 112.7714936  36.0647970  73.1844682 113.5578025  35.6467393  72.8335099
 113.0353641  36.9694063  73.3526330 112.9425014  41.5020821  67.8833339
 112.3070847  41.5755447  68.5954243 112.6122420  42.0914419  67.2052418
 118.1723363  36.0023204  74.0877660 118.9048535  35.4322420  74.3215490
 117.4162719  35.6144804  74.5284166 107.4467942  38.9640298  67.5794314
 107.3304200  38.2885201  68.2475398 107.5570202  38.4772672  66.7626467
 109.7899483  38.4250445  71.2841003 109.4257690  37.8981066  71.9953924
 110.6466599  38.0348914  71.1107488 115.6948784  29.7144778  78.5472269
 115.3632108  30.5840189  78.3233484 115.0994397  29.3981062  79.2266299
 109.4304970  33.4540345  66.2802351 109.5979372  34.3220581  66.6472822
 109.2402139  33.6167626  65.3563641 112.1880303  41.9157324  77.9468182
 111.8881026  42.8182362  77.8383989 111.8431363  41.6489507  78.7989335
 105.6392785  38.3671120  73.9804886 104.7143281  38.2347335  74.1882578
 105.8877198  39.1465340  74.4774829 115.5877447  34.4339864  75.6265619
 114.6794324  34.3655272  75.3324380 115.5365043  34.9111809  76.4547445
 109.4094191  35.9098002  67.2649018 109.2893816  36.3555053  68.1034498
 108.7146779  36.2583320  66.7062556 103.0001596  38.0104394  74.8148675
 103.1293977  38.2638873  75.7288087 102.3199047  38.6032102  74.4953330
 107.1701083  48.6801644  70.9139149 107.0925113  49.6309469  70.9927630
 106.5662727  48.3347516  71.5714076 109.6618313  35.8529509  83.5700516
 108.8851647  36.4123430  83.5603381 110.3008876  36.3386292  84.0915386
 117.4539093  32.6356302  77.4043493 116.8113474  32.9288835  76.7583288
 116.9494022  32.5209223  78.2096690 115.1079257  36.3819475  68.0929352
 116.0197113  36.6146862  67.9177050 114.5988904  36.9656520  67.5304431
 107.9164685  38.6614963  83.1318483 108.6579369  39.2000007  82.8553307
 107.2101671  39.2881252  83.2890035 113.3920025  40.8044103  81.7290645
 113.8003381  40.3626514  80.9845277 112.6697286  40.2296731  81.9824838
 109.7451095  35.7416710  79.1024202 110.5912290  36.1656124  79.2458851
 109.6849732  35.0850334  79.7962765 113.7148839  41.3645294  75.4842934
 113.0857702  41.5291008  74.7819002 113.3274501  41.7786903  76.2553898
 117.5938071  42.2999732  72.8387297 116.9089109  42.6798633  72.2884331
 117.6781921  42.9095058  73.5719245 112.8950540  33.4021078  80.7605375
 112.6511472  34.1563139  80.2239651 113.1710471  33.7806426  81.5952622
 114.8489003  39.9459691  79.4382641 115.0605898  40.5891451  78.7617022
 114.8018751  39.1122007  78.9704571 112.4515232  32.5577511  76.3419213
 111.5899711  32.8558765  76.6335951 112.4777667  32.7747910  75.4100246
 109.2676801  41.1019702  72.7493019 109.7315147  41.3807405  71.9597641
 109.0033599  40.2003147  72.5666109 106.1600882  40.6491183  75.6872782
 106.7302239  41.0778452  75.0490267 106.7508994  40.3673768  76.3856968
 108.2045687  37.2242854  69.5582584 108.9069731  37.6763898  70.0256510
 107.8726316  36.5826673  70.1862477 106.6526049  35.8154611  83.9333793
 106.0224709  36.4970892  84.1669190 106.5462137  35.7037693  82.9886932
 101.9471021  35.4826407  74.8599717 101.1570075  35.7383935  74.3839828
 102.4382269  36.2974745  74.9651758 115.9634831  42.8231646  77.6104998
 116.7852275  42.4211833  77.3287680 115.9597234  42.7199880  78.5621114
 103.8985767  35.8470986  71.8183194 103.1016930  35.9589680  72.3366690
 103.6711359  36.1857638  70.9524085 109.7291434  42.3715689  79.7665709
 109.7935867  42.8336097  80.6023881 109.0202358  41.7413054  79.8948019
 100.2308724  35.7356897  77.2914708 100.4816763  36.6203907  77.5572284
 100.7668273  35.5561499  76.5189800 109.4439452  44.0383797  69.6344689
 109.3085127  44.8835333  70.0629537 109.9849264  44.2403075  68.8710623
 105.9306792  30.1175377  86.2959044 105.5373737  29.5641575  86.9706689
 106.7472932  30.4285955  86.6865562 102.8968849  41.5559235  70.2072614
 103.4093370  42.3502485  70.3578179 103.5491562  40.8585525  70.1406216
 104.7063734  44.6724991  72.2895367 104.8830362  45.5942956  72.1016351
 105.5020568  44.3583410  72.7189747 108.8474753  31.5333256  83.8879301
 109.5884466  32.1340409  83.8083763 109.0792675  30.7910894  83.3297343
 103.9916091  36.7189623  82.1657531 103.8769606  35.8174880  82.4664630
 103.1360608  36.9653320  81.8142347 111.0707928  44.6607363  83.7645031
 110.6271783  43.8743742  83.4465936 111.7325142  44.8486514  83.0988922
 105.8295050  46.1903165  78.2905710 106.3802475  46.0620228  77.5182704
 104.9906525  46.4898054  77.9400603 113.1689166  44.9410163  81.7926432
 113.1507642  45.7619044  81.3006702 114.0909086  44.8164239  82.0176574
 109.6262221  42.4554293  82.6349941 110.1590557  41.6942581  82.4049249
 109.0976302  42.1627945  83.3774095 112.7931916  27.5614359  78.1643583
 112.4496185  28.4516000  78.0882693 113.1610878  27.3716016  77.3013168
 100.8617766  39.8847889  70.9832185 101.6992988  40.2944898  70.7665892
 101.0396034  38.9447331  70.9532379 112.7582198  37.5522970  66.6716018
 112.2428822  38.3227575  66.9104405 112.4859507  36.8788106  67.2949079
 110.3429309  32.3972671  71.7301256 109.4870906  32.0079521  71.5506895
 110.7556261  32.4764631  70.8701042 111.8728456  29.9319014  76.1292816
 111.3693251  29.8949149  75.3160621 112.1659063  30.8411757  76.1889473
 108.1171342  30.0157744  75.1358998 108.9824339  29.8200552  74.7764887
 108.1848851  29.7868095  76.0628354 117.7316472  40.3055325  68.6069191
 116.9545915  39.9666484  68.1624353 118.4107953  40.3107948  67.9324156
 112.5468501  35.4250062  68.4975799 112.2418637  35.7396211  69.3485942
 113.4998944  35.5031482  68.5403132 110.9914933  41.5840285  70.1468753
 110.4636295  40.8493045  69.8341990 110.4902436  42.3614962  69.9008721
 115.9707779  39.7789306  75.2635799 115.3131454  40.4688567  75.3515928
 116.7748178  40.1685738  75.6069786 105.7233661  32.2459952  72.5075364
 106.2977413  32.0235133  71.7748557 106.3104643  32.3148646  73.2603966
 114.7813238  38.1333678  73.3139741 115.2945120  38.7663670  73.8161451
 115.4314462  37.5334874  72.9483101 106.0503248  34.2764413  66.5271250
 105.2140560  34.6139099  66.8480524 105.9108018  34.1413392  65.5898387
 108.0256329  29.1201201  71.2350434 107.3720741  28.8050218  70.6107049
 107.9836803  28.4976941  71.9610257 109.1367533  39.4020496  63.1503726
 108.2294595  39.1709749  63.3494875 109.6338565  38.6058115  63.3377707
 112.0435612  48.1118003  66.0700412 111.3697311  48.4149700  66.6785370
 112.4301434  48.9147083  65.7205869 111.2594069  35.6083134  75.5598081
 110.3416630  35.8298081  75.4019769 111.6754213  35.6829445  74.7009789
 112.0429117  37.0074550  70.6900762 112.7900936  37.5195947  70.3807884
 112.3120706  36.6858602  71.5505155 110.3155767  39.5033090  67.6727716
 109.4066986  39.2192123  67.7700186 110.3450851  39.9232169  66.8131023
 115.5475034  43.1139680  71.4418884 115.0937361  42.2730590  71.4984074
 114.9169001  43.7501078  71.7793664 114.4907954  34.0431666  72.6719551
 113.7530711  33.5309052  73.0029794 114.7434727  33.6032048  71.8602828
 113.9907974  44.9516177  72.3768702 114.2830948  45.5121234  71.6581067
 114.5006594  45.2444738  73.1321861 114.5919581  26.8207918  73.2661320
 114.8978458  25.9605281  72.9787235 115.3172186  27.4125538  73.0660314
 100.8843937  37.2238605  71.6542918 100.6868337  36.6307965  70.9293985
 100.3290601  36.9190815  72.3718857 108.8640661  37.1161711  73.7737511
 108.9189271  36.1635547  73.6979988 108.0531863  37.2721150  74.2578810
 110.0131855  41.0441834  65.0115795 109.5751285  40.3277693  64.5521432
 110.7542296  41.2717949  64.4500886 106.8033021  35.7338771  71.5327890
 105.9900886  36.0332941  71.9393082 107.2992015  35.3394460  72.2502372
 108.9541599  45.7296528  73.4662155 108.9117778  45.9557374  72.5370687
 109.8704298  45.4959902  73.6147956 112.4007233  36.1980595  80.3642784
 112.7556620  36.4252068  81.2237250 113.0479364  36.5298972  79.7420039
 118.1304969  39.3199031  71.0692113 117.9922868  39.5100627  70.1413302
 117.7741188  40.0818414  71.5260164 106.2947096  33.3057126  77.1489125
 106.9346475  33.1645885  76.4512088 105.4624626  33.0191640  76.7727727
 118.1574349  41.3875558  76.0803385 118.5910856  41.2950847  76.9286439
 118.8705930  41.3633059  75.4423401 107.0707400  42.6059557  73.2624118
 107.8647998  42.1109877  73.0606693 106.3599092  42.0777420  72.8991823
 111.8902244  44.9877652  77.6136485 111.9439266  45.5568589  78.3814201
 111.0217025  45.1579537  77.2490522 103.3790163  36.7502638  69.3383870
 102.4487751  36.6887094  69.5553832 103.4747635  36.2278591  68.5420512
 103.2975712  33.2757451  71.9262112 103.5582529  34.1902785  71.8171272
 104.1192884  32.8081894  72.0758725 104.7700637  34.6895208  79.0960936
 105.4423691  34.4812571  78.4473585 103.9430424  34.4917294  78.6566169
 119.0189899  41.4299259  78.6136270 119.2125789  42.3345069  78.8595545
 118.9190517  40.9706678  79.4474855 110.6726209  31.3157149  81.1126597
 110.0254124  32.0147099  81.0191074 111.4427225  31.7493293  81.4802846
 114.0805007  41.5806002  84.1877151 113.9290514  41.3516553  83.2707234
 114.0709687  42.5376603  84.2008496 110.8490344  39.1537914  79.1723417
 111.7782404  39.3049074  78.9992384 110.4281374  39.2421935  78.3172064
 109.6478675  43.1788579  76.9421955 109.5089761  42.8107363  77.8147893
 108.8593272  43.6936218  76.7705913 110.2426827  48.2797675  68.2847491
 110.4178583  47.8085718  69.0993114 109.5559615  48.9063441  68.5128752
 111.1983891  42.5570181  74.3310792 110.8633723  42.5170951  75.2268442
 110.6987836  41.8914897  73.8581203 105.1728135  37.9637811  79.8563374
 105.0347933  37.2318050  80.4574913 106.0833058  37.8746712  79.5747561
 114.1343082  39.9026216  64.6047852 113.5172253  39.1773044  64.5080905
 113.6659571  40.6635576  64.2614926 107.8010435  37.6757771  79.3447053
 108.5110054  37.0350963  79.3033672 107.7579743  37.9270666  80.2673234
 115.7897214  44.6125124  82.2653633 115.7309760  43.9284344  81.5984216
 116.1916732  45.3544114  81.8134258 106.5139369  34.6622989  81.1642693
 105.9776726  34.2113727  81.8164289 105.9256078  34.7968897  80.4213157
 104.8087913  51.4287038  75.0587351 105.0484511  52.0605562  75.7366370
 103.9657109  51.0775078  75.3452711 105.9241628  34.1211640  63.7269156
 105.0471095  34.0000441  63.3631403 106.3999381  33.3297718  63.4748045
 115.7914621  42.5764708  80.4967612 114.9041400  42.2390630  80.6194011
 116.3613172  41.8447739  80.7336378  97.4443768  38.9088800  73.8210664
  98.1314808  38.5950530  73.2331679  97.2891897  39.8130164  73.5477915
 102.2478490  33.7978996  78.2495687 102.1636679  33.1904666  77.5146097
 101.4261197  34.2888015  78.2505184 109.3215775  47.2366160  77.4628855
 109.2485946  48.0421132  77.9748160 108.8793168  47.4358126  76.6376877
 109.1105554  46.4737930  70.9731677 108.3273076  47.0159611  71.0669901
 109.8098299  46.9911910  71.3725918 112.4202204  32.2832560  73.6165882
 112.9170904  31.5302522  73.2966953 111.6489186  32.3196877  73.0509092
 120.2731962  37.9872925  75.2584174 120.2621838  38.8697641  74.8878107
 119.4049341  37.6344476  75.0638711 111.7814458  47.1352994  79.6187014
 112.4942430  47.7700459  79.5462916 111.2904487  47.2316860  78.8027016
 113.5031985  41.0404247  71.1904306 112.5688264  41.1605710  71.0209010
 113.6808654  40.1376714  70.9264316 109.0037173  34.4249943  73.3437567
 108.6334961  33.8720983  74.0318472 109.4996266  33.8208076  72.7912567
 116.8904536  36.8821566  71.7254340 117.3564989  37.7149558  71.6514643
 117.3412037  36.4166548  72.4299598 106.8326372  44.8847438  80.4392585
 107.5335831  45.5183921  80.5921979 106.3621487  45.2262169  79.6788224
 114.9580768  43.2265388  68.7240492 115.2340611  43.1121982  69.6334366
 114.0885266  42.8282873  68.6852665 114.8621199  29.2502153  75.7645241
 113.9484279  29.4806380  75.9327448 115.2914301  29.3340597  76.6159274
 114.6327658  37.4392045  78.2645135 113.9799108  37.6867953  77.6097588
 115.0108038  36.6256184  77.9307613 111.5934832  47.4751739  72.3673306
 111.7757226  46.6573394  72.8301058 112.4167818  47.6919431  71.9298196
 111.9276997  46.4019924  69.6288354 112.4564763  45.8912378  69.0158516
 112.1905217  46.0862454  70.4933887 110.6815231  38.1811856  84.7511172
 110.0055868  38.0805986  85.4213548 111.5042865  38.0251070  85.2147170
 102.4294090  44.4183793  77.3723688 103.0147527  43.6727481  77.5051592
 102.2318928  44.7287750  78.2560351 105.2832745  47.4535040  72.3886130
 104.6143120  47.9381168  71.9050170 105.1445615  47.7004261  73.3029508
  97.0211744  36.9889393  76.0928131  97.0595844  36.4552984  76.8865249
  96.5152037  36.4624599  75.4739108 109.4238014  49.4878784  78.9868788
 109.9756322  49.6510405  79.7517874 109.7644207  50.0783222  78.3148813
 104.4002507  31.8353934  79.5890673 104.4643833  32.6968765  79.1768071
 104.3369627  31.2227935  78.8563032 103.8754779  33.9077066  83.2363707
 104.5026818  33.5254144  83.8501232 103.0182698  33.6891268  83.6019400
 114.2748888  44.3140041  84.8417443 114.8188792  44.9270000  84.3472398
 113.6935733  44.8719620  85.3584456 100.6520322  35.7153495  69.1682062
 100.9473763  34.8064174  69.1149116  99.7508358  35.6941235  68.8463064
 112.5606401  47.4360759  75.9732470 112.4357540  46.6350499  75.4643416
 113.2185492  47.9306953  75.4846440 104.1814569  33.7909492  75.1509611
 103.4601155  34.4045460  75.0117084 104.9707825  34.3267257  75.0726257
 114.6241309  45.2369779  77.6012021 113.6771645  45.1175131  77.5290347
 114.9724082  44.3492278  77.6838282 106.9840883  31.1263918  81.4250262
 107.5075284  31.3726215  82.1876572 106.7653216  31.9583953  81.0053400
 102.3808164  33.3967593  69.2921387 102.0520870  32.5164972  69.1096493
 102.7347534  33.3415262  70.1797776 111.6287743  45.0322496  73.8016373
 111.4812705  44.1039203  73.9823943 112.4541236  45.0542586  73.3173448
 105.4949987  33.6840563  69.6596865 105.8346059  34.2126484  68.9375473
 105.9422107  34.0220969  70.4355431 115.2321864  45.8551054  74.8881246
 116.1568412  45.6493916  74.7505697 115.0637168  45.6067456  75.7970587
 108.1893428  32.0677614  79.1099933 107.8490248  31.2685427  79.5120613
 107.4832434  32.3679324  78.5376766 108.8409899  29.1526926  77.5627256
 109.6635969  28.6787404  77.4406146 109.0847963  29.9317410  78.0625942
 107.4818134  32.1815184  67.8590158 108.2026496  32.5596437  67.3553875
 106.8583438  32.9004061  67.9625136 111.6249257  32.8860333  68.7948490
 111.8412871  33.7684971  68.4937318 111.1443324  32.4946547  68.0654132
 106.3648478  35.8446047  75.3719235 106.2193059  36.1586350  76.2643516
 105.8873682  36.4630947  74.8190133 108.2244861  32.8348595  75.4200124
 108.2106430  31.9389688  75.0832422 108.9417289  32.8419258  76.0538410
 110.0770992  33.2685935  77.4653252 109.8188770  34.1903005  77.4637582
 109.5456032  32.8716369  78.1553716 115.0217181  46.3736722  70.2443337
 115.1954058  45.8083144  69.4917189 115.5146072  47.1737617  70.0622827
 100.8394140  38.3851391  78.3106896 100.2947608  39.1611199  78.4427170
 101.7173490  38.7322195  78.1526017 107.6281757  31.7162975  70.6887694
 107.7497668  30.7879621  70.8878582 107.3383799  31.7301661  69.7766010
 110.4972947  29.4017885  73.8254414 110.5194644  29.4657218  72.8706394
 110.9141006  28.5622394  74.0194920 120.8756572  39.1373145  71.8633637
 121.3187718  38.3880470  71.4652760 119.9983082  39.1283281  71.4807369
 116.0092353  45.6903486  67.3440235 116.7043258  46.3110179  67.5627550
 116.3515503  44.8398837  67.6192613 101.6260162  37.5121287  81.2037053
 100.8841898  37.6603923  81.7901683 101.3052907  37.7729553  80.3403802
 117.9083776  43.1403192  68.8727566 118.4335100  43.4790465  68.1476886
 117.8206129  42.2050207  68.6890701 109.5703825  47.0537265  81.0017443
 109.8790951  46.8086412  81.8740142 110.3679307  47.2583904  80.5136313
 109.5924437  49.2075175  73.2322819 109.1529427  48.7151554  73.9255676
 110.3432554  48.6648143  72.9914894 102.0716776  45.3986716  73.2347447
 102.8974796  45.0990488  72.8546091 101.7210828  44.6294338  73.6837236
 107.0398309  44.7513184  75.3045121 106.4178318  44.0883889  75.0047349
 107.7103176  44.7774316  74.6218769 100.2725381  43.3173042  74.1936381
  99.4357289  42.8895217  74.0120382 100.2449026  43.5105486  75.1307172
 107.1122837  33.2294972  84.8977627 107.1610992  34.1057095  84.5155397
 107.6545351  32.6872365  84.3249270 117.5977682  43.7736095  84.1778764
 116.8073226  43.7560234  83.6383263 117.3611037  44.3124389  84.9327801
 117.7175557  40.6228562  81.4911493 117.7673562  40.4578569  82.4327015
 117.6089481  39.7555821  81.1009373 106.6011816  43.3017108  68.7803581
 106.7499936  43.9852572  68.1270254 107.4078259  43.2822198  69.2953037
 115.0079320  36.6059490  82.8070799 115.9089182  36.4665955  82.5154797
 115.0827294  36.7713945  83.7468977 109.3422125  33.9826345  81.6523986
 108.4725434  34.2759911  81.3806574 109.5781605  34.5666790  82.3731249
 119.2193754  43.0425503  81.7353514 118.9278562  43.4055484  82.5716975
 118.6065885  42.3292512  81.5566846 120.4189436  40.6078383  74.2556084
 121.2536328  41.0468187  74.4193645 120.5548565  40.1317036  73.4364330
 117.4680942  38.1658118  80.2033572 117.9435064  38.3585764  79.3952423
 116.5446508  38.2217304  79.9576956 104.3564449  39.3282285  69.7864650
 104.1110491  38.4244615  69.9844860 104.5260363  39.3299436  68.8444128
 112.0461159  30.2005962  79.1689406 112.5643103  30.9366988  78.8435895
 111.6916292  30.5069955  80.0036165 103.6260096  35.0610643  67.2850812
 102.9329341  35.1354998  66.6290848 103.3811848  34.2970986  67.8072329
 112.2973753  26.6206244  74.6890303 112.5775507  25.9529433  75.3150729
 113.0824360  26.8135340  74.1764966 110.1007221  45.7965238  66.2515329
 109.5281189  46.4155425  65.7985801 110.6740015  46.3464600  66.7855251
 116.1682611  35.0423878  78.4361878 117.1200034  35.1421976  78.4574102
 115.9986062  34.2502147  78.9459962 114.1896991  32.1279461  78.6221279
 113.5946923  32.4084474  77.9267767 113.9046688  32.6173362  79.3938020
 113.3204481  46.0802388  67.3823911 114.2535154  46.0147950  67.5856787
 113.2327694  46.9158655  66.9238444 115.9492498  45.3968258  64.3427859
 115.8706129  45.0628122  65.2363617 116.7702165  45.8890026  64.3419331
 118.6470689  38.2629998  77.5504177 118.6147009  37.3245998  77.7363861
 119.2571313  38.3414034  76.8170002 110.4854020  37.1326051  63.5931381
 111.4313125  37.0032259  63.6619799 110.1068265  36.3940713  64.0700810
 118.7965178  35.0541041  77.5962460 118.2804226  34.2699498  77.4092389
 119.6805126  34.7259758  77.7608980 116.4575905  28.7982057  73.5558273
 116.2600726  28.4897145  74.4401605 117.0675610  29.5243696  73.6856203
 110.3692713  41.1843797  85.0532038 111.2895722  41.3622396  85.2472085
 110.3342296  40.2399842  84.9011738 108.6696937  35.0576027  63.5286267
 107.7628393  34.7609140  63.6048980 108.9472918  34.7605845  62.6620553
  99.5874878  36.3782391  73.9785313  99.2677662  35.5247699  73.6859687
  99.0408306  36.5930969  74.7343280 103.3654785  39.0944832  77.6954819
 103.5840795  40.0261939  77.7142853 103.7780559  38.7352806  78.4809623
 110.2859003  29.6012917  69.6830508 109.4759731  29.2560002  70.0585754
 110.9743420  29.2920461  70.2718119 112.2149551  28.6790964  71.3054805
 112.7680590  29.0986417  71.9644828 112.4519638  27.7526712  71.3477761
 108.2382650  34.6678037  87.0857568 108.1379377  35.6172394  87.0169660
 108.0204192  34.3396276  86.2133639 107.4395722  31.9162962  63.6698246
 108.3014886  32.2417861  63.9294063 107.6246066  31.1294458  63.1571312
  99.4563138  39.9985302  75.9478435  98.7626609  39.5839255  75.4348389
 100.2036129  40.0405839  75.3511853 115.5928358  30.7891489  70.8133469
 115.0127027  31.4476293  70.4311521 115.3264291  29.9668833  70.4020886
 114.0431925  30.1896546  73.0154789 114.5431703  30.3013081  72.2069108
 114.6867533  29.8857599  73.6555598 108.1013920  38.0975176  85.9022630
 107.6181002  38.8975536  86.1086519 108.1874859  38.1083121  84.9490074
 101.3699880  39.9303556  73.8244449 101.3470568  40.0291243  72.8726333
 101.6800517  40.7768707  74.1461616 104.0287258  41.9879711  77.9391064
 104.9830511  41.9563653  77.8720995 103.8299782  41.5270335  78.7541290
 104.6186640  40.5580827  80.5061862 105.4379529  41.0524906  80.5296699
 104.8923448  39.6412795  80.4779429 114.3753236  32.9491579  69.8689817
 113.4879091  33.2341230  69.6510012 114.7907225  32.7885343  69.0217094
 117.7267772  32.9738100  73.5844156 118.5028163  33.4634553  73.8568773
 117.0015907  33.3996154  74.0416026 120.1640331  33.6865719  74.6418097
 120.7584822  33.4461455  73.9311405 120.2366915  32.9672850  75.2691633
 102.3837487  47.5299330  74.9561262 102.2491955  46.7699731  74.3899260
 101.9669549  48.2540230  74.4890051 113.5196450  42.7136254  63.9637837
 114.2232300  42.9186256  64.5795493 112.7959098  43.2813016  64.2286921
 114.3494260  38.4646115  70.0840107 114.2929461  38.9214667  69.2447740
 114.9022602  37.7036800  69.9062950 118.1599066  34.2535847  70.9090227
 117.9036000  33.8532483  71.7398434 117.5351934  34.9679641  70.7840366
 122.4711404  36.9931920  73.4161518 121.9110962  37.0625110  74.1893080
 121.8654907  36.8172905  72.6961014 105.5406613  48.4268647  75.1679704
 105.4238997  49.3714080  75.0658395 104.7199059  48.1242209  75.5565504
 115.4283147  43.1518783  66.0136297 116.2628751  42.7199982  65.8313772
 115.2667490  42.9800797  66.9413192 115.0829039  39.6550896  67.3792636
 115.0277843  39.4895168  66.4381080 114.4575095  40.3626929  67.5354826
  99.8721554  34.8918961  81.2054059 100.5180418  34.3817915  81.6941284
  99.6638705  35.6287642  81.7797484 112.3974946  41.9599808  86.7046199
 113.2666106  42.1340460  86.3432834 111.9181698  42.7794225  86.5821928
 108.3925165  29.1559005  66.9577955 108.3803835  30.1000845  67.1146226
 109.2848587  28.9729151  66.6637416 106.5661127  49.0796909  78.3835633
 107.4688373  49.1120519  78.7002128 106.3398497  48.1497360  78.3981969
 108.3214729  47.8327896  75.0445711 107.3710360  47.8329757  74.9310084
 108.6247215  47.0860630  74.5281746 112.2077284  25.7501782  71.2123892
 111.4409680  25.1960269  71.3580574 112.6187989  25.8223651  72.0738043
 104.2119045  32.0386578  85.3029073 105.0750507  31.6823383  85.5132397
 103.6384456  31.7000473  85.9904477 120.8657129  53.6215862  76.0452999
 120.5275640  53.5056927  75.1573533 121.7346897  53.2207027  76.0254005
 116.7243944  55.4751339  72.0349889 116.1608809  55.3841276  71.2666177
 116.6096339  54.6551243  72.5152382 121.3476912  54.7750714  82.0039204
 121.3365552  54.3803512  81.1319708 121.5097551  54.0416787  82.5972975
 114.2708376  56.9702530  74.8734110 115.0629668  56.6293355  74.4580409
 114.5105026  57.0797505  75.7936263 116.2299130  56.2311444  67.7451489
 117.0030006  55.6840431  67.6064365 116.5824529  57.0955693  67.9565950
 118.0684173  57.5587826  80.9518388 117.7774039  58.4633457  80.8365054
 118.7041157  57.6004353  81.6662458 118.9940380  54.9364674  77.5419748
 119.5903952  54.7120697  76.8276711 119.0515351  54.1949420  78.1445196
 118.5665408  52.3904110  65.3769939 118.8190929  51.8685631  64.6153402
 117.6289967  52.2270255  65.4796622 118.2861697  54.2932216  67.5794314
 118.1697955  53.6177119  68.2475398 118.3963957  53.8064590  66.7626467
 120.6293238  53.7542363  71.2841003 120.2651445  53.2272984  71.9953924
 121.4860353  53.3640832  71.1107488 120.2698725  48.7832262  66.2802351
 120.4373127  49.6512499  66.6472822 120.0795894  48.9459544  65.3563641
 116.4786539  53.6963038  73.9804886 115.5537036  53.5639252  74.1882578
 116.7270952  54.4757257  74.4774829 120.2487945  51.2389920  67.2649018
 120.1287571  51.6846971  68.1034498 119.5540534  51.5875238  66.7062556
 113.8395350  53.3396312  74.8148675 113.9687731  53.5930791  75.7288087
 113.1592802  53.9324020  74.4953330 118.0094838  64.0093562  70.9139149
 117.9318867  64.9601387  70.9927630 117.4056481  63.6639434  71.5714076
 120.5012067  51.1821427  83.5700516 119.7245401  51.7415347  83.5603381
 121.1402630  51.6678210  84.0915386 118.7558440  53.9906880  83.1318483
 119.4973124  54.5291924  82.8553307 118.0495425  54.6173169  83.2890035
 120.5844849  51.0708628  79.1024202 121.4306044  51.4948041  79.2458851
 120.5243487  50.4142252  79.7962765 120.1070556  56.4311620  72.7493019
 120.5708901  56.7099323  71.9597641 119.8427354  55.5295064  72.5666109
 116.9994637  55.9783101  75.6872782 117.5695994  56.4070370  75.0490267
 117.5902749  55.6965686  76.3856968 119.0439442  52.5534772  69.5582584
 119.7463485  53.0055816  70.0256510 118.7120070  51.9118591  70.1862477
 117.4919803  51.1446529  83.9333793 116.8618464  51.8262809  84.1669190
 117.3855891  51.0329610  82.9886932 112.7864776  50.8118325  74.8599717
 111.9963830  51.0675853  74.3839828 113.2776023  51.6266662  74.9651758
 114.7379521  51.1762904  71.8183194 113.9410684  51.2881598  72.3366690
 114.5105113  51.5149556  70.9524085 120.5685189  57.7007607  79.7665709
 120.6329621  58.1628014  80.6023881 119.8596113  57.0704972  79.8948019
 111.0702479  51.0648815  77.2914708 111.3210517  51.9495825  77.5572284
 111.6062027  50.8853417  76.5189800 120.2833206  59.3675715  69.6344689
 120.1478881  60.2127250  70.0629537 120.8243019  59.5694992  68.8710623
 116.7700546  45.4467294  86.2959044 116.3767492  44.8933493  86.9706689
 117.5866686  45.7577873  86.6865562 113.7362604  56.8851153  70.2072614
 114.2487124  57.6794403  70.3578179 114.3885317  56.1877443  70.1406216
 115.5457489  60.0016909  72.2895367 115.7224117  60.9234874  72.1016351
 116.3414322  59.6875328  72.7189747 119.6868507  46.8625174  83.8879301
 120.4278220  47.4632327  83.8083763 119.9186430  46.1202811  83.3297343
 114.8309845  52.0481541  82.1657531 114.7163360  51.1466798  82.4664630
 113.9754363  52.2945238  81.8142347 116.6688804  61.5195083  78.2905710
 117.2196229  61.3912146  77.5182704 115.8300280  61.8189972  77.9400603
 120.4655975  57.7846211  82.6349941 120.9984312  57.0234499  82.4049249
 119.9370056  57.4919862  83.3774095 111.7011521  55.2139807  70.9832185
 112.5386743  55.6236815  70.7665892 111.8789788  54.2739249  70.9532379
 121.1823064  47.7264588  71.7301256 120.3264660  47.3371439  71.5506895
 121.5950016  47.8056549  70.8701042 118.9565096  45.3449661  75.1358998
 119.8218093  45.1492470  74.7764887 119.0242605  45.1160013  76.0628354
 121.8308688  56.9132203  70.1468753 121.3030049  56.1784963  69.8341990
 121.3296190  57.6906879  69.9008721 116.5627415  47.5751869  72.5075364
 117.1371167  47.3527051  71.7748557 117.1498398  47.6440564  73.2603966
 116.8897002  49.6056330  66.5271250 116.0534315  49.9431017  66.8480524
 116.7501772  49.4705310  65.5898387 118.8650083  44.4493118  71.2350434
 118.2114495  44.1342135  70.6107049 118.8230557  43.8268859  71.9610257
 119.9761288  54.7312413  63.1503726 119.0688350  54.5001667  63.3494875
 120.4732320  53.9350033  63.3377707 121.1549521  54.8325008  67.6727716
 120.2460741  54.5484041  67.7700186 121.1844605  55.2524087  66.8131023
 111.7237692  52.5530522  71.6542918 111.5262092  51.9599883  70.9293985
 111.1684356  52.2482732  72.3718857 119.7034415  52.4453629  73.7737511
 119.7583025  51.4927465  73.6979988 118.8925617  52.6013068  74.2578810
 120.8525609  56.3733752  65.0115795 120.4145039  55.6569611  64.5521432
 121.5936050  56.6009867  64.4500886 117.6426775  51.0630688  71.5327890
 116.8294641  51.3624859  71.9393082 118.1385770  50.6686377  72.2502372
 119.7935353  61.0588445  73.4662155 119.7511532  61.2849292  72.5370687
 120.7098052  60.8251820  73.6147956 117.1340850  48.6349044  77.1489125
 117.7740229  48.4937803  76.4512088 116.3018381  48.3483557  76.7727727
 117.9101154  57.9351474  73.2624118 118.7041752  57.4401795  73.0606693
 117.1992846  57.4069338  72.8991823 114.2183917  52.0794556  69.3383870
 113.2881506  52.0179012  69.5553832 114.3141389  51.5570509  68.5420512
 114.1369467  48.6049369  71.9262112 114.3976284  49.5194702  71.8171272
 114.9586639  48.1373812  72.0758725 115.6094392  50.0187126  79.0960936
 116.2817445  49.8104488  78.4473585 114.7824178  49.8209212  78.6566169
 121.5119964  46.6449067  81.1126597 120.8647879  47.3439017  81.0191074
 122.2820979  47.0785211  81.4802846 120.4872430  58.5080496  76.9421955
 120.3483516  58.1399281  77.8147893 119.6987026  59.0228136  76.7705913
 121.0820582  63.6089593  68.2847491 121.2572338  63.1377636  69.0993114
 120.3953370  64.2355359  68.5128752 122.0377645  57.8862099  74.3310792
 121.7027478  57.8462869  75.2268442 121.5381591  57.2206815  73.8581203
 116.0121889  53.2929729  79.8563374 115.8741687  52.5609968  80.4574913
 116.9226813  53.2038629  79.5747561 118.6404190  53.0049688  79.3447053
 119.3503808  52.3642881  79.3033672 118.5973498  53.2562583  80.2673234
 117.3533124  49.9914906  81.1642693 116.8170481  49.5405645  81.8164289
 116.7649832  50.1260815  80.4213157 115.6481667  66.7578956  75.0587351
 115.8878265  67.3897480  75.7366370 114.8050864  66.4066996  75.3452711
 116.7635383  49.4503558  63.7269156 115.8864849  49.3292359  63.3631403
 117.2393136  48.6589636  63.4748045 108.2837523  54.2380717  73.8210664
 108.9708563  53.9242448  73.2331679 108.1285652  55.1422082  73.5477915
 113.0872245  49.1270914  78.2495687 113.0030434  48.5196584  77.5146097
 112.2654951  49.6179932  78.2505184 120.1609529  62.5658078  77.4628855
 120.0879701  63.3713050  77.9748160 119.7186922  62.7650044  76.6376877
 119.9499309  61.8029848  70.9731677 119.1666831  62.3451528  71.0669901
 120.6492054  62.3203828  71.3725918 119.8430928  49.7541861  73.3437567
 119.4728715  49.2012901  74.0318472 120.3390020  49.1499994  72.7912567
 117.6720126  60.2139356  80.4392585 118.3729586  60.8475839  80.5921979
 117.2015241  60.5554087  79.6788224 121.5208985  53.5103774  84.7511172
 120.8449622  53.4097903  85.4213548 122.3436619  53.3542988  85.2147170
 113.2687844  59.7475711  77.3723688 113.8541281  59.0019399  77.5051592
 113.0712683  60.0579667  78.2560351 116.1226499  62.7826958  72.3886130
 115.4536875  63.2673086  71.9050170 115.9839369  63.0296178  73.3029508
 107.8605499  52.3181311  76.0928131 107.8989598  51.7844902  76.8865249
 107.3545792  51.7916516  75.4739108 120.2631768  64.8170702  78.9868788
 120.8150076  64.9802323  79.7517874 120.6037961  65.4075139  78.3148813
 115.2396261  47.1645851  79.5890673 115.3037588  48.0260682  79.1768071
 115.1763382  46.5519853  78.8563032 114.7148534  49.2368984  83.2363707
 115.3420573  48.8546061  83.8501232 113.8576453  49.0183186  83.6019400
 111.4914077  51.0445413  69.1682062 111.7867518  50.1356091  69.1149116
 110.5902112  51.0233152  68.8463064 115.0208324  49.1201410  75.1509611
 114.2994909  49.7337377  75.0117084 115.8101579  49.6559174  75.0726257
 117.8234637  46.4555836  81.4250262 118.3469039  46.7018133  82.1876572
 117.6046970  47.2875871  81.0053400 113.2201918  48.7259511  69.2921387
 112.8914624  47.8456890  69.1096493 113.5741289  48.6707179  70.1797776
 116.3343741  49.0132480  69.6596865 116.6739814  49.5418402  68.9375473
 116.7815862  49.3512887  70.4355431 119.0287182  47.3969531  79.1099933
 118.6884002  46.5977344  79.5120613 118.3226188  47.6971242  78.5376766
 119.6803654  44.4818844  77.5627256 120.5029723  44.0079322  77.4406146
 119.9241717  45.2609327  78.0625942 118.3211888  47.5107102  67.8590158
 119.0420251  47.8888355  67.3553875 117.6977193  48.2295979  67.9625136
 117.2042233  51.1737964  75.3719235 117.0586813  51.4878267  76.2643516
 116.7267436  51.7922865  74.8190133 119.0638616  48.1640512  75.4200124
 119.0500184  47.2681606  75.0832422 119.7811044  48.1711176  76.0538410
 120.9164746  48.5977852  77.4653252 120.6582524  49.5194923  77.4637582
 120.3849787  48.2008287  78.1553716 111.6787895  53.7143309  78.3106896
 111.1341363  54.4903117  78.4427170 112.5567245  54.0614113  78.1526017
 118.4675511  47.0454893  70.6887694 118.5891423  46.1171539  70.8878582
 118.1777554  47.0593578  69.7766010 121.3366702  44.7309803  73.8254414
 121.3588399  44.7949136  72.8706394 121.7534761  43.8914312  74.0194920
 112.4653917  52.8413205  81.2037053 111.7235653  52.9895840  81.7901683
 112.1446661  53.1021471  80.3403802 120.4097579  62.3829183  81.0017443
 120.7184706  62.1378330  81.8740142 121.2073061  62.5875822  80.5136313
 120.4318191  64.5367093  73.2322819 119.9923182  64.0443471  73.9255676
 121.1826308  63.9940060  72.9914894 112.9110530  60.7278634  73.2347447
 113.7368550  60.4282405  72.8546091 112.5604582  59.9586256  73.6837236
 117.8792064  60.0805102  75.3045121 117.2572073  59.4175807  75.0047349
 118.5496930  60.1066234  74.6218769 111.1119135  58.6464960  74.1936381
 110.2751044  58.2187134  74.0120382 111.0842781  58.8397403  75.1307172
 117.9516591  48.5586890  84.8977627 118.0004747  49.4349013  84.5155397
 118.4939105  48.0164283  84.3249270 117.4405570  58.6309025  68.7803581
 117.5893691  59.3144490  68.1270254 118.2472014  58.6114115  69.2953037
 120.1815879  49.3118262  81.6523986 119.3119189  49.6051828  81.3806574
 120.4175360  49.8958707  82.3731249 115.1958203  54.6574203  69.7864650
 114.9504245  53.7536533  69.9844860 115.3654118  54.6591353  68.8444128
 114.4653851  50.3902560  67.2850812 113.7723096  50.4646915  66.6290848
 114.2205603  49.6262904  67.8072329 120.9400976  61.1257156  66.2515329
 120.3674943  61.7447343  65.7985801 121.5133770  61.6756517  66.7855251
 121.3247774  52.4617968  63.5931381 122.2706879  52.3324176  63.6619799
 120.9462019  51.7232630  64.0700810 121.2086467  56.5135715  85.0532038
 122.1289476  56.6914314  85.2472085 121.1736050  55.5691760  84.9011738
 119.5090692  50.3867945  63.5286267 118.6022147  50.0901057  63.6048980
 119.7866673  50.0897763  62.6620553 110.4268632  51.7074308  73.9785313
 110.1071416  50.8539616  73.6859687 109.8802060  51.9222886  74.7343280
 114.2048540  54.4236749  77.6954819 114.4234549  55.3553857  77.7142853
 114.6174313  54.0644724  78.4809623 121.1252757  44.9304834  69.6830508
 120.3153486  44.5851919  70.0585754 121.8137174  44.6212378  70.2718119
 119.0776405  49.9969955  87.0857568 118.9773132  50.9464312  87.0169660
 118.8597947  49.6688194  86.2133639 118.2789476  47.2454880  63.6698246
 119.1408640  47.5709778  63.9294063 118.4639820  46.4586376  63.1571312
 110.2956892  55.3277220  75.9478435 109.6020363  54.9131172  75.4348389
 111.0429883  55.3697756  75.3511853 118.9407675  53.4267094  85.9022630
 118.4574757  54.2267454  86.1086519 119.0268614  53.4375039  84.9490074
 112.2093635  55.2595473  73.8244449 112.1864323  55.3583161  72.8726333
 112.5194271  56.1060624  74.1461616 114.8681012  57.3171628  77.9391064
 115.8224266  57.2855571  77.8720995 114.6693536  56.8562252  78.7541290
 115.4580395  55.8872745  80.5061862 116.2773284  56.3816823  80.5296699
 115.7317202  54.9704713  80.4779429 113.2231241  62.8591248  74.9561262
 113.0885709  62.0991649  74.3899260 112.8063303  63.5832148  74.4890051
 116.3800367  63.7560565  75.1679704 116.2632751  64.7005997  75.0658395
 115.5592813  63.4534127  75.5565504 110.7115309  50.2210878  81.2054059
 111.3574172  49.7109832  81.6941284 110.5032460  50.9579560  81.7797484
 119.2318919  44.4850923  66.9577955 119.2197589  45.4292763  67.1146226
 120.1242341  44.3021068  66.6637416 117.4054881  64.4088827  78.3835633
 118.3082128  64.4412437  78.7002128 117.1792251  63.4789278  78.3981969
 119.1608483  63.1619813  75.0445711 118.2104114  63.1621675  74.9310084
 119.4640969  62.4152548  74.5281746 115.0512800  47.3678495  85.3029073
 115.9144261  47.0115300  85.5132397 114.4778210  47.0292390  85.9904477
 121.9096233  66.3940733  77.2914708 122.1604272  67.2787743  77.5572284
 122.4455782  66.2145334  76.5189800 119.1231277  69.5672635  73.8210664
 119.8102317  69.2534365  73.2331679 118.9679406  70.4714000  73.5477915
 118.6999253  67.6473229  76.0928131 118.7383353  67.1136819  76.8865249
 118.1939546  67.1208434  75.4739108 121.9512890  73.9756878  74.1936381
 121.1144798  73.5479052  74.0120382 121.9236535  74.1689321  75.1307172
 121.2662387  67.0366226  73.9785313 120.9465171  66.1831534  73.6859687
 120.7195815  67.2514804  74.7343280 121.1350647  70.6569137  75.9478435
 120.4414118  70.2423090  75.4348389 121.8823638  70.6989674  75.3511853
 121.5509063  65.5502796  81.2054059 122.1967927  65.0401750  81.6941284
 121.3426214  66.2871478  81.7797484  96.3307330  10.3571849  57.6384456
  96.2531359  11.3079674  57.7172937  95.7268973  10.0117721  58.2959382
  93.9694160  13.1057243  61.7832658  94.2090758  13.7375767  62.4611677
  93.1263356  12.7545283  62.0698017  94.4438992   9.1305245  59.1131437
  93.7749367   9.6151373  58.6295477  94.3051861   9.3774466  60.0274815
  98.5844260  11.1648989  65.7114095  99.1362568  11.3280610  66.4763180
  98.9250454  11.7553427  65.0394120  98.7530684  10.8845380  59.9568126
  98.3135674  10.3921759  60.6500983  99.5038801  10.3418348  59.7160201
  91.5443733   9.2069535  61.6806568  91.4098201   8.4469936  61.1144566
  91.1275796   9.9310435  61.2135357  94.7012859  10.1038852  61.8925011
  94.5845244  11.0484285  61.7903701  93.8805306   9.8012414  62.2810810
  95.7267373  10.7567114  65.1080939  96.6294620  10.7890724  65.4247434
  95.5004744   9.8267565  65.1227275 110.0263375  15.2986067  62.7698305
 109.6881887  15.1827132  61.8818840 110.8953143  14.8977232  62.7499311
 105.8850191  17.1521544  58.7595196 105.3215056  17.0611481  57.9911484
 105.7702586  16.3321448  59.2397689 110.5083158  16.4520919  68.7284511
 110.4971799  16.0573717  67.8565014 110.6703798  15.7186992  69.3218282
 103.4314623  18.6472735  61.5979417 104.2235915  18.3063560  61.1825716
 103.6711273  18.7567710  62.5181570 111.4649750  20.8192511  54.0709661
 110.8137729  21.4046592  53.6843675 112.2594112  21.3498706  54.1304698
 105.3905377  17.9081648  54.4696795 106.1636253  17.3610636  54.3309671
 105.7430776  18.7725898  54.6811257 107.2290419  19.2358031  67.6763695
 106.9380285  20.1403662  67.5610361 107.8647404  19.2774558  68.3907764
 108.1546626  16.6134879  64.2665054 108.7510199  16.3890902  63.5522017
 108.2121598  15.8719625  64.8690502 107.7271655  14.0674315  52.1015245
 107.9797175  13.5455836  51.3398708 106.7896214  13.9040460  52.2041929
 112.9425015  18.5082943  54.6078645 112.3070848  18.5817570  55.3199550
 112.6122421  19.0976542  53.9297725 107.4467943  15.9702421  54.3039620
 107.3304202  15.2947324  54.9720705 107.5570203  15.4834794  53.4871773
 109.7899484  15.4312568  58.0086309 109.4257692  14.9043189  58.7199231
 110.6466600  15.0411037  57.8352795 112.1880304  18.9219446  64.6713488
 111.8881028  19.8244485  64.5629296 111.8431364  18.6551629  65.5234641
 105.6392786  15.3733243  60.7050193 104.7143282  15.2409457  60.9127885
 105.8877199  16.1527462  61.2020135 103.0001597  15.0166517  61.5393982
 103.1293978  15.2700996  62.4533394 102.3199048  15.6094225  61.2198637
 107.1701084  25.6863767  57.6384456 107.0925114  26.6371592  57.7172937
 106.5662728  25.3409639  58.2959382 107.9164686  15.6677085  69.8563790
 108.6579371  16.2062129  69.5798614 107.2101672  16.2943374  70.0135342
 113.3920026  17.8106226  68.4535951 113.8003382  17.3688636  67.7090584
 112.6697288  17.2358853  68.7070144 113.7148841  18.3707416  62.2088240
 113.0857703  18.5353131  61.5064308 113.3274503  18.7849026  62.9799204
 117.5938073  19.3061854  59.5632604 116.9089111  19.6860756  59.0129637
 117.6781922  19.9157181  60.2964552 114.8489004  16.9521813  66.1627948
 115.0605899  17.5953573  65.4862329 114.8018752  16.1184130  65.6949878
 109.2676803  18.1081825  59.4738325 109.7315148  18.3869528  58.6842948
 109.0033601  17.2065269  59.2911416 106.1600884  17.6553306  62.4118089
 106.7302241  18.0840574  61.7735573 106.7508995  17.3735891  63.1102274
 108.2045689  14.2304977  56.2827891 108.9069732  14.6826021  56.7501817
 107.8726317  13.5888796  56.9107784 106.6526050  12.8216734  70.6579100
 106.0224711  13.5033014  70.8914497 106.5462138  12.7099815  69.7132238
 101.9471023  12.4888530  61.5845024 101.1570077  12.7446058  61.1085135
 102.4382270  13.3036867  61.6897065 115.9634832  19.8293769  64.3350305
 116.7852276  19.4273956  64.0532987 115.9597235  19.7262003  65.2866421
 103.8985768  12.8533109  58.5428501 103.1016931  12.9651803  59.0611996
 103.6711360  13.1919761  57.6769391 109.7291436  19.3777812  66.4911015
 109.7935868  19.8398219  67.3269187 109.0202359  18.7475177  66.6193325
 100.2308726  12.7419020  64.0160015 100.4816764  13.6266030  64.2817591
 100.7668274  12.5623622  63.2435107 109.4439453  21.0445920  56.3589996
 109.3085128  21.8897455  56.7874844 109.9849266  21.2465197  55.5955930
 102.8968851  18.5621358  56.9317921 103.4093371  19.3564608  57.0823486
 103.5491563  17.8647648  56.8651522 104.7063735  21.6787114  59.0140674
 104.8830364  22.6005079  58.8261658 105.5020569  21.3645533  59.4435054
 103.9916092  13.7251746  68.8902837 103.8769607  12.8237003  69.1909936
 103.1360610  13.9715442  68.5387654 111.0707930  21.6669486  70.4890338
 110.6271784  20.8805865  70.1711242 111.7325143  21.8548637  69.8234229
 105.8295051  23.1965288  65.0151016 106.3802476  23.0682351  64.2428010
 104.9906527  23.4960177  64.6645909 113.1689168  21.9472286  68.5171739
 113.1507643  22.7681167  68.0252008 114.0909088  21.8226361  68.7421880
 109.6262222  19.4616415  69.3595247 110.1590559  18.7004704  69.1294555
 109.0976303  19.1690067  70.1019402 100.8617767  16.8910012  57.7077491
 101.6992989  17.3007020  57.4911199 101.0396035  15.9509454  57.6777685
 117.7316474  17.3117447  55.3314498 116.9545916  16.9728607  54.8869660
 118.4107955  17.3170070  54.6569463 110.9914935  18.5902408  56.8714059
 110.4636296  17.8555168  56.5587297 110.4902437  19.3677084  56.6254028
 115.9707781  16.7851428  61.9881106 115.3131455  17.4750690  62.0761234
 116.7748180  17.1747860  62.3315092 109.1367535  16.4082618  49.8749033
 108.2294596  16.1771872  50.0740182 109.6338567  15.6120237  50.0623014
 112.0435614  25.1180125  52.7945719 111.3697312  25.4211822  53.4030677
 112.4301436  25.9209206  52.4451176 110.3155768  16.5095213  54.3973023
 109.4066987  16.2254246  54.4945492 110.3450852  16.9294292  53.5376329
 115.5475036  20.1201803  58.1664190 115.0937363  19.2792712  58.2229381
 114.9169002  20.7563201  58.5038970 113.9907975  21.9578299  59.1014008
 114.2830949  22.5183356  58.3826374 114.5006595  22.2506860  59.8567167
 100.8843939  14.2300727  58.3788225 100.6868338  13.6370088  57.6539291
 100.3290603  13.9252937  59.0964164 110.0131856  18.0503957  51.7361101
 109.5751286  17.3339816  51.2766739 110.7542297  18.2780072  51.1746193
 108.9541600  22.7358650  60.1907462 108.9117779  22.9619497  59.2615994
 109.8704299  22.5022025  60.3393263 118.1574350  18.3937681  62.8048691
 118.5910857  18.3012970  63.6531745 118.8705931  18.3695181  62.1668707
 107.0707401  19.6121679  59.9869424 107.8647999  19.1171999  59.7851999
 106.3599093  19.0839542  59.6237130 111.8902245  21.9939775  64.3381792
 111.9439268  22.5630711  65.1059508 111.0217027  22.1641660  63.9735829
 103.3790164  13.7564761  56.0629177 102.4487752  13.6949217  56.2799139
 103.4747636  13.2340714  55.2665818 119.0189900  18.4361381  65.3381577
 119.2125790  19.3407192  65.5840852 118.9190518  17.9768800  66.1720162
 114.0805009  18.5868124  70.9122457 113.9290515  18.3578676  69.9952541
 114.0709688  19.5438726  70.9253802 110.8490345  16.1600037  65.8968724
 111.7782405  16.3111197  65.7237691 110.4281375  16.2484058  65.0417370
 109.6478677  20.1850701  63.6667261 109.5089762  19.8169486  64.5393199
 108.8593273  20.6998341  63.4951219 110.2426829  25.2859798  55.0092798
 110.4178584  24.8147841  55.8238421 109.5559617  25.9125564  55.2374059
 111.1983892  19.5632304  61.0556099 110.8633725  19.5233074  61.9513749
 110.6987838  18.8977020  60.5826509 105.1728136  14.9699934  66.5808680
 105.0347934  14.2380173  67.1820219 106.0833059  14.8808834  66.2992868
 114.1343084  16.9088338  51.3293159 113.5172254  16.1835167  51.2326211
 113.6659572  17.6697699  50.9860233 107.8010437  14.6819893  66.0692360
 108.5110055  14.0413086  66.0278978 107.7579745  14.9332788  66.9918541
 115.7897215  21.6187247  68.9898939 115.7309761  20.9346467  68.3229522
 116.1916734  22.3606237  68.5379565 104.8087914  28.4349161  61.7832658
 105.0484512  29.0667685  62.4611677 103.9657110  28.0837201  62.0698017
 115.7914622  19.5826831  67.2212919 114.9041401  19.2452752  67.3439318
 116.3613174  18.8509862  67.4581684  97.4443770  15.9150922  60.5455970
  98.1314809  15.6012652  59.9576986  97.2891898  16.8192287  60.2723222
 109.3215776  24.2428283  64.1874162 109.2485947  25.0483255  64.6993467
 108.8793169  24.4420249  63.3622183 109.1105555  23.4800053  57.6976984
 108.3273077  24.0221733  57.7915208 109.8098301  23.9974033  58.0971225
 111.7814459  24.1415117  66.3432321 112.4942432  24.7762582  66.2708222
 111.2904488  24.2378983  65.5272323 113.5031986  18.0466370  57.9149612
 112.5688265  18.1667832  57.7454317 113.6808655  17.1438836  57.6509622
 106.8326373  21.8909561  67.1637892 107.5335832  22.5246043  67.3167286
 106.3621488  22.2324292  66.4033531 114.9580769  20.2327510  55.4485799
 115.2340613  20.1184105  56.3579673 114.0885267  19.8344995  55.4097972
 111.5934833  24.4813861  59.0918612 111.7757227  23.6635517  59.5546364
 112.4167819  24.6981553  58.6543502 111.9276998  23.4082046  56.3533661
 112.4564765  22.8974501  55.7403823 112.1905218  23.0924576  57.2179194
 110.6815232  15.1873979  71.4756479 110.0055869  15.0868108  72.1458854
 111.5042866  15.0313193  71.9392476 102.4294091  21.4245916  64.0968994
 103.0147528  20.6789603  64.2296898 102.2318929  21.7349872  64.9805658
 105.2832746  24.4597163  59.1131437 104.6143121  24.9443291  58.6295477
 105.1445616  24.7066383  60.0274815  97.0211746  13.9951516  62.8173437
  97.0595845  13.4615106  63.6110555  96.5152039  13.4686721  62.1984415
 109.4238015  26.4940906  65.7114095 109.9756323  26.6572528  66.4763180
 109.7644208  27.0845344  65.0394120 114.2748889  21.3202164  71.5662749
 114.8188793  21.9332122  71.0717704 113.6935734  21.8781742  72.0829762
 100.6520323  12.7215618  55.8927369 100.9473764  11.8126296  55.8394422
  99.7508359  12.7003357  55.5708371 112.5606402  24.4422882  62.6977777
 112.4357542  23.6412622  62.1888723 113.2185493  24.9369075  62.2091747
 114.6241310  22.2431902  64.3257327 113.6771646  22.1237253  64.2535654
 114.9724084  21.3554400  64.4083589 111.6287744  22.0384618  60.5261679
 111.4812706  21.1101326  60.7069249 112.4541237  22.0604709  60.0418755
 115.2321866  22.8613177  61.6126552 116.1568413  22.6556038  61.4751003
 115.0637169  22.6129578  62.5215894 106.3648479  12.8508169  62.0964541
 106.2193060  13.1648472  62.9888823 105.8873683  13.4693069  61.5435440
 115.0217182  23.3798844  56.9688644 115.1954059  22.8145267  56.2162496
 115.5146073  24.1799739  56.7868134 100.8394142  15.3913514  65.0352202
 100.2947610  16.1673322  65.1672477 101.7173491  15.7384318  64.8771324
 116.0092354  22.6965609  54.0685542 116.7043259  23.3172302  54.2872857
 116.3515504  21.8460960  54.3437920 101.6260163  14.5183410  67.9282359
 100.8841900  14.6666045  68.5146990 101.3052908  14.7791675  67.0649109
 117.9083777  20.1465314  55.5972873 118.4335102  20.4852587  54.8722193
 117.8206130  19.2112330  55.4136007 109.5703826  24.0599388  67.7262749
 109.8790953  23.8148535  68.5985449 110.3679308  24.2646027  67.2381620
 109.5924438  26.2137298  59.9568126 109.1529428  25.7213676  60.6500983
 110.3432555  25.6710265  59.7160201 102.0716777  22.4048839  59.9592754
 102.8974797  22.1052610  59.5791397 101.7210829  21.6356461  60.4082543
 107.0398310  21.7575307  62.0290428 106.4178320  21.0946012  61.7292655
 107.7103177  21.7836439  61.3464075 100.2725382  20.3235165  60.9181688
  99.4357291  19.8957339  60.7365689 100.2449028  20.5167608  61.8552479
 117.5977683  20.7798218  70.9024071 116.8073227  20.7622357  70.3628570
 117.3611038  21.3186512  71.6573107 117.7175559  17.6290684  68.2156799
 117.7673563  17.4640692  69.1572322 117.6089482  16.7617943  67.8254680
 106.6011817  20.3079230  55.5048888 106.7499938  20.9914694  54.8515561
 107.4078261  20.2884320  56.0198344 119.2193755  20.0487626  68.4598821
 118.9278564  20.4117606  69.2962282 118.6065887  19.3354634  68.2812153
 104.3564450  16.3344408  56.5109957 104.1110492  15.4306738  56.7090167
 104.5260365  16.3361558  55.5689435 110.1007223  22.8027361  52.9760635
 109.5281190  23.4217548  52.5231107 110.6740016  23.3526722  53.5100557
 113.3204483  23.0864511  54.1069218 114.2535156  23.0210072  54.3102093
 113.2327695  23.9220778  53.6483750 115.9492499  22.4030381  51.0673165
 115.8706131  22.0690245  51.9608923 116.7702166  22.8952149  51.0664638
 110.3692714  18.1905919  71.7777345 111.2895723  18.3684518  71.9717391
 110.3342297  17.2461965  71.6257044  99.5874879  13.3844513  60.7030620
  99.2677663  12.5309821  60.4104994  99.0408307  13.5993091  61.4588587
 103.3654786  16.1006954  64.4200126 103.5840796  17.0324062  64.4388160
 103.7780560  15.7414929  65.2054930  99.4563139  17.0047425  62.6723741
  98.7626610  16.5901377  62.1593696 100.2036130  17.0467961  62.0757160
 108.1013922  15.1037299  72.6267937 107.6181003  15.9037659  72.8331826
 108.1874861  15.1145244  71.6735381 101.3699881  16.9365678  60.5489756
 101.3470569  17.0353366  59.5971639 101.6800518  17.7830829  60.8706922
 104.0287259  18.9941833  64.6636370 104.9830513  18.9625776  64.5966302
 103.8299783  18.5332457  65.4786596 104.6186641  17.5642949  67.2307168
 105.4379530  18.0587028  67.2542005 104.8923449  16.6474918  67.2024736
 102.3837488  24.5361453  61.6806568 102.2491956  23.7761854  61.1144566
 101.9669550  25.2602353  61.2135357 113.5196451  19.7198376  50.6883144
 114.2232301  19.9248379  51.3040799 112.7959100  20.2875138  50.9532227
 105.5406614  25.4330770  61.8925011 105.4238998  26.3776202  61.7903701
 104.7199060  25.1304331  62.2810810 115.4283148  20.1580906  52.7381604
 116.2628752  19.7262104  52.5559079 115.2667491  19.9862919  53.6658498
 115.0829041  16.6613019  54.1037943 115.0277844  16.4957290  53.1626387
 114.4575096  17.3689052  54.2600133  99.8721556  11.8981083  67.9299365
 100.5180419  11.3880037  68.4186590  99.6638707  12.6349765  68.5042790
 112.3974948  18.9661931  73.4291506 113.2666107  19.1402583  73.0678141
 111.9181699  19.7856348  73.3067235 106.5661128  26.0859032  65.1080939
 107.4688375  26.1182642  65.4247434 106.3398498  25.1559483  65.1227275
 108.3214730  24.8390018  61.7691018 107.3710361  24.8391880  61.6555390
 108.6247216  24.0922753  61.2527053 120.8657130  30.6277985  62.7698305
 120.5275641  30.5119050  61.8818840 121.7346898  30.2269150  62.7499311
 116.7243945  32.4813461  58.7595196 116.1608811  32.3903398  57.9911484
 116.6096341  31.6613366  59.2397689 121.3476913  31.7812837  68.7284511
 121.3365554  31.3865635  67.8565014 121.5097552  31.0478909  69.3218282
 114.2708377  33.9764653  61.5979417 115.0629669  33.6355478  61.1825716
 114.5105028  34.0859628  62.5181570 116.2299131  33.2373566  54.4696795
 117.0030007  32.6902553  54.3309671 116.5824530  34.1017815  54.6811257
 118.0684174  34.5649948  67.6763695 117.7774040  35.4695579  67.5610361
 118.7041158  34.6066476  68.3907764 118.9940381  31.9426797  64.2665054
 119.5903953  31.7182819  63.5522017 119.0515352  31.2011542  64.8690502
 118.5665409  29.3966232  52.1015245 118.8190930  28.8747754  51.3398708
 117.6289968  29.2332378  52.2041929 118.2861698  31.2994338  54.3039620
 118.1697956  30.6239242  54.9720705 118.3963958  30.8126712  53.4871773
 120.6293239  30.7604485  58.0086309 120.2651446  30.2335106  58.7199231
 121.4860355  30.3702954  57.8352795 120.2698726  25.7894385  53.0047658
 120.4373128  26.6574621  53.3718129 120.0795895  25.9521667  52.0808947
 116.4786540  30.7025161  60.7050193 115.5537037  30.5701375  60.9127885
 116.7270954  31.4819380  61.2020135 120.2487947  28.2452042  53.9894325
 120.1287572  28.6909093  54.8279805 119.5540535  28.5937360  53.4307863
 113.8395352  30.3458434  61.5393982 113.9687733  30.5992913  62.4533394
 113.1592803  30.9386142  61.2198637 118.0094839  41.0155684  57.6384456
 117.9318868  41.9663509  57.7172937 117.4056482  40.6701557  58.2959382
 120.5012069  28.1883550  70.2945823 119.7245403  28.7477470  70.2848688
 121.1402632  28.6740333  70.8160693 118.7558441  30.9969003  69.8563790
 119.4973125  31.5354047  69.5798614 118.0495426  31.6235292  70.0135342
 120.5844851  28.0770750  65.8269508 121.4306046  28.5010164  65.9704157
 120.5243488  27.4204375  66.5208071 120.1070557  33.4373742  59.4738325
 120.5708903  33.7161445  58.6842948 119.8427355  32.5357187  59.2911416
 116.9994638  32.9845224  62.4118089 117.5695995  33.4132492  61.7735573
 117.5902750  32.7027808  63.1102274 119.0439443  29.5596895  56.2827891
 119.7463486  30.0117938  56.7501817 118.7120072  28.9180713  56.9107784
 117.4919805  28.1508651  70.6579100 116.8618465  28.8324932  70.8914497
 117.3855892  28.0391733  69.7132238 112.7864777  27.8180447  61.5845024
 111.9963831  28.0737976  61.1085135 113.2776024  28.6328785  61.6897065
 114.7379522  28.1825026  58.5428501 113.9410686  28.2943721  59.0611996
 114.5105115  28.5211679  57.6769391 120.5685190  34.7069730  66.4911015
 120.6329623  35.1690137  67.3269187 119.8596114  34.0767095  66.6193325
 111.0702480  28.0710938  64.0160015 111.3210518  28.9557948  64.2817591
 111.6062028  27.8915539  63.2435107 120.2833208  36.3737837  56.3589996
 120.1478882  37.2189373  56.7874844 120.8243020  36.5757115  55.5955930
 116.7700547  22.4529417  73.0204351 116.3767493  21.8995616  73.6951995
 117.5866688  22.7639996  73.4110869 113.7362605  33.8913275  56.9317921
 114.2487126  34.6856525  57.0823486 114.3885318  33.1939566  56.8651522
 115.5457490  37.0079032  59.0140674 115.7224118  37.9296996  58.8261658
 116.3414323  36.6937451  59.4435054 119.6868508  23.8687296  70.6124608
 120.4278222  24.4694449  70.5329070 119.9186431  23.1264934  70.0542650
 114.8309846  29.0543663  68.8902837 114.7163361  28.1528921  69.1909936
 113.9754364  29.3007360  68.5387654 116.6688805  38.5257205  65.0151016
 117.2196230  38.3974269  64.2428010 115.8300281  38.8252094  64.6645909
 120.4655976  34.7908333  69.3595247 120.9984313  34.0296621  69.1294555
 119.9370057  34.4981985  70.1019402 111.7011522  32.2201930  57.7077491
 112.5386744  32.6298938  57.4911199 111.8789790  31.2801372  57.6777685
 121.1823065  24.7326711  58.4546563 120.3264661  24.3433561  58.2752201
 121.5950017  24.8118672  57.5946348 118.9565098  22.3511784  61.8604304
 119.8218094  22.1554593  61.5010194 119.0242606  22.1222136  62.7873661
 121.8308689  33.9194326  56.8714059 121.3030051  33.1847085  56.5587297
 121.3296192  34.6969002  56.6254028 116.5627417  24.5813992  59.2320671
 117.1371169  24.3589173  58.4993864 117.1498399  24.6502686  59.9849272
 116.8897004  26.6118453  53.2516556 116.0534316  26.9493139  53.5725831
 116.7501773  26.4767433  52.3143693 118.8650084  21.4555241  57.9595740
 118.2114497  21.1404258  57.3352355 118.8230558  20.8330981  58.6855563
 119.9761289  31.7374536  49.8749033 119.0688351  31.5063789  50.0740182
 120.4732321  30.9412155  50.0623014 121.1549523  31.8387131  54.3973023
 120.2460742  31.5546164  54.4945492 121.1844606  32.2586209  53.5376329
 111.7237693  29.5592645  58.3788225 111.5262093  28.9662006  57.6539291
 111.1684357  29.2544855  59.0964164 119.7034417  29.4515751  60.4982818
 119.7583026  28.4989588  60.4225295 118.8925619  29.6075190  60.9824116
 120.8525610  33.3795874  51.7361101 120.4145040  32.6631733  51.2766739
 121.5936051  33.6071989  51.1746193 117.6426777  28.0692811  58.2573197
 116.8294642  28.3686982  58.6638389 118.1385771  27.6748500  58.9747679
 119.7935354  38.0650568  60.1907462 119.7511533  38.2911414  59.2615994
 120.7098053  37.8313943  60.3393263 117.1340851  25.6411167  63.8734432
 117.7740231  25.4999926  63.1757395 116.3018382  25.3545680  63.4973034
 117.9101155  34.9413597  59.9869424 118.7041754  34.4463917  59.7851999
 117.1992848  34.4131460  59.6237130 114.2183919  29.0856679  56.0629177
 113.2881507  29.0241134  56.2799139 114.3141391  28.5632632  55.2665818
 114.1369468  25.6111492  58.6507419 114.3976285  26.5256825  58.5416579
 114.9586640  25.1435934  58.8004031 115.6094393  27.0249249  65.8206243
 116.2817447  26.8166611  65.1718892 114.7824180  26.8271335  65.3811475
 121.5119965  23.6511190  67.8371904 120.8647880  24.3501139  67.7436380
 122.2820981  24.0847334  68.2048152 120.4872431  35.5142619  63.6667261
 120.3483517  35.1461403  64.5393199 119.6987027  36.0290258  63.4951219
 121.0820583  40.6151715  55.0092798 121.2572339  40.1439759  55.8238421
 120.3953371  41.2417482  55.2374059 122.0377646  34.8924222  61.0556099
 121.7027479  34.8524992  61.9513749 121.5381592  34.2268938  60.5826509
 116.0121890  30.2991852  66.5808680 115.8741688  29.5672091  67.1820219
 116.9226814  30.2100752  66.2992868 118.6404191  30.0111811  66.0692360
 119.3503810  29.3705003  66.0278978 118.5973499  30.2624706  66.9918541
 117.3533125  26.9977029  67.8887999 116.8170482  26.5467767  68.5409596
 116.7649833  27.1322938  67.1458464 115.6481668  43.7641078  61.7832658
 115.8878267  44.3959602  62.4611677 114.8050865  43.4129118  62.0698017
 116.7635384  26.4565680  50.4514463 115.8864850  26.3354481  50.0876710
 117.2393137  25.6651759  50.1993352 108.2837524  31.2442840  60.5455970
 108.9708564  30.9304570  59.9576986 108.1285653  32.1484205  60.2723222
 113.0872246  26.1333037  64.9740994 113.0030435  25.5258706  64.2391404
 112.2654953  26.6242055  64.9750490 120.1609530  39.5720201  64.1874162
 120.0879702  40.3775172  64.6993467 119.7186923  39.7712167  63.3622183
 119.9499310  38.8091971  57.6976984 119.1666832  39.3513651  57.7915208
 120.6492055  39.3265950  58.0971225 119.8430929  26.7603983  60.0682874
 119.4728716  26.2075024  60.7563779 120.3390021  26.1562117  59.5157874
 117.6720127  37.2201478  67.1637892 118.3729587  37.8537961  67.3167286
 117.2015242  37.5616210  66.4033531 121.5208986  30.5165897  71.4756479
 120.8449623  30.4160026  72.1458854 122.3436620  30.3605110  71.9392476
 113.2687845  36.7537833  64.0968994 113.8541282  36.0081521  64.2296898
 113.0712684  37.0641790  64.9805658 116.1226501  39.7889081  59.1131437
 115.4536876  40.2735208  58.6295477 115.9839370  40.0358301  60.0274815
 107.8605500  29.3243433  62.8173437 107.8989600  28.7907024  63.6110555
 107.3545793  28.7978639  62.1984415 120.2631769  41.8232824  65.7114095
 120.8150077  41.9864446  66.4763180 120.6037963  42.4137262  65.0394120
 115.2396263  24.1707974  66.3135980 115.3037589  25.0322805  65.9013377
 115.1763383  23.5581976  65.5808338 114.7148535  26.2431106  69.9609014
 115.3420574  25.8608184  70.5746538 113.8576454  26.0245308  70.3264706
 111.4914078  28.0507536  55.8927369 111.7867519  27.1418214  55.8394422
 110.5902114  28.0295275  55.5708371 115.0208325  26.1263532  61.8754917
 114.2994911  26.7399500  61.7362391 115.8101581  26.6621297  61.7971563
 117.8234638  23.4617959  68.1495569 118.3469040  23.7080255  68.9121878
 117.6046972  24.2937993  67.7298706 113.2201919  25.7321633  56.0166694
 112.8914626  24.8519012  55.8341800 113.5741290  25.6769302  56.9043083
 116.3343743  26.0194603  56.3842172 116.6739815  26.5480524  55.6620780
 116.7815863  26.3575009  57.1600738 119.0287183  24.4031654  65.8345240
 118.6884004  23.6039467  66.2365919 118.3226190  24.7033365  65.2622073
 119.6803655  21.4880966  64.2872563 120.5029725  21.0141444  64.1651453
 119.9241719  22.2671450  64.7871249 118.3211890  24.5169225  54.5835464
 119.0420252  24.8950477  54.0799181 117.6977194  25.2358101  54.6870442
 117.2042234  28.1800087  62.0964541 117.0586815  28.4940390  62.9888823
 116.7267438  28.7984987  61.5435440 119.0638617  25.1702635  62.1445431
 119.0500186  24.2743728  61.8077729 119.7811045  25.1773299  62.7783717
 120.9164748  25.6039975  64.1898558 120.6582525  26.5257046  64.1882889
 120.3849788  25.2070410  64.8799022 111.6787896  30.7205431  65.0352202
 111.1341364  31.4965239  65.1672477 112.5567246  31.0676236  64.8771324
 118.4675513  24.0517015  57.4133001 118.5891424  23.1233661  57.6123888
 118.1777555  24.0655701  56.5011316 121.3366703  21.7371926  60.5499721
 121.3588400  21.8011259  59.5951700 121.7534762  20.8976434  60.7440227
 112.4653918  29.8475327  67.9282359 111.7235654  29.9957963  68.5146990
 112.1446662  30.1083593  67.0649109 120.4097581  39.3891306  67.7262749
 120.7184707  39.1440452  68.5985449 121.2073063  39.5937944  67.2381620
 120.4318193  41.5429215  59.9568126 119.9923183  41.0505594  60.6500983
 121.1826310  41.0002183  59.7160201 112.9110532  37.7340756  59.9592754
 113.7368552  37.4344528  59.5791397 112.5604584  36.9648379  60.4082543
 117.8792065  37.0867224  62.0290428 117.2572074  36.4237929  61.7292655
 118.5496932  37.1128356  61.3464075 111.1119137  35.6527083  60.9181688
 110.2751045  35.2249257  60.7365689 111.0842782  35.8459526  61.8552479
 117.9516592  25.5649012  71.6222934 118.0004748  26.4411135  71.2400703
 118.4939107  25.0226406  71.0494577 117.4405572  35.6371148  55.5048888
 117.5893692  36.3206612  54.8515561 118.2472015  35.6176238  56.0198344
 120.1815881  26.3180385  68.3769292 119.3119190  26.6113951  68.1051881
 120.4175361  26.9020830  69.0976556 115.1958205  31.6636325  56.5109957
 114.9504247  30.7598655  56.7090167 115.3654119  31.6653476  55.5689435
 114.4653852  27.3964683  54.0096118 113.7723097  27.4709038  53.3536154
 114.2205604  26.6325027  54.5317635 120.9400977  38.1319278  52.9760635
 120.3674944  38.7509465  52.5231107 121.5133771  38.6818640  53.5100557
 121.3247776  29.4680091  50.3176688 122.2706880  29.3386299  50.3865106
 120.9462021  28.7294753  50.7946116 121.2086468  33.5197837  71.7777345
 122.1289478  33.6976436  71.9717391 121.1736051  32.5753882  71.6257044
 119.5090693  27.3930067  50.2531573 118.6022148  27.0963180  50.3294287
 119.7866674  27.0959885  49.3865859 110.4268633  28.7136431  60.7030620
 110.1071418  27.8601739  60.4104994 109.8802061  28.9285009  61.4588587
 114.2048541  31.4298872  64.4200126 114.4234551  32.3615980  64.4388160
 114.6174315  31.0706846  65.2054930 121.1252759  21.9366957  56.4075815
 120.3153487  21.5914042  56.7831061 121.8137176  21.6274501  56.9963426
 119.0776406  27.0032078  73.8102875 118.9773133  27.9526434  73.7414966
 118.8597948  26.6750316  72.9378945 118.2789478  24.2517003  50.3943552
 119.1408642  24.5771901  50.6539370 118.4639822  23.4648498  49.8816618
 110.2956893  32.3339342  62.6723741 109.6020365  31.9193295  62.1593696
 111.0429884  32.3759879  62.0757160 118.9407676  30.4329216  72.6267937
 118.4574758  31.2329576  72.8331826 119.0268615  30.4437161  71.6735381
 112.2093636  32.2657596  60.5489756 112.1864324  32.3645283  59.5971639
 112.5194272  33.1122747  60.8706922 114.8681014  34.3233751  64.6636370
 115.8224267  34.2917693  64.5966302 114.6693537  33.8624375  65.4786596
 115.4580396  32.8934867  67.2307168 116.2773285  33.3878946  67.2542005
 115.7317204  31.9766835  67.2024736 113.2231242  39.8653371  61.6806568
 113.0885710  39.1053771  61.1144566 112.8063305  40.5894270  61.2135357
 116.3800368  40.7622688  61.8925011 116.2632752  41.7068120  61.7903701
 115.5592815  40.4596249  62.2810810 110.7115310  27.2273001  67.9299365
 111.3574174  26.7171955  68.4186590 110.5032461  27.9641683  68.5042790
 119.2318921  21.4913046  53.6823261 119.2197590  22.4354886  53.8391532
 120.1242342  21.3083191  53.3882723 117.4054882  41.4150949  65.1080939
 118.3082129  41.4474560  65.4247434 117.1792253  40.4851400  65.1227275
 119.1608484  40.1681936  61.7691018 118.2104115  40.1683798  61.6555390
 119.4640971  39.4214671  61.2527053 115.0512801  24.3740618  72.0274379
 115.9144263  24.0177423  72.2377704 114.4778212  24.0354513  72.7149784
 121.9096235  43.4002855  64.0160015 122.1604273  44.2849865  64.2817591
 122.4455783  43.2207457  63.2435107 119.1231279  46.5734758  60.5455970
 119.8102318  46.2596488  59.9576986 118.9679407  47.4776122  60.2723222
 118.6999255  44.6535351  62.8173437 118.7383354  44.1198942  63.6110555
 118.1939548  44.1270557  62.1984415 121.9512891  50.9819000  60.9181688
 121.1144799  50.5541175  60.7365689 121.9236537  51.1751444  61.8552479
 121.2662388  44.0428348  60.7030620 120.9465172  43.1893657  60.4104994
 120.7195816  44.2576927  61.4588587 121.1350648  47.6631260  62.6723741
 120.4414119  47.2485213  62.1593696 121.8823639  47.7051796  62.0757160
 121.5509065  42.5564919  67.9299365 122.1967928  42.0463873  68.4186590
 121.3426216  43.2933600  68.5042790 118.0094840  18.0217807  44.3629763
 117.9318870  18.9725632  44.4418243 117.4056484  17.6763679  45.0204689
 115.6481670  20.7703201  48.5077965 115.8878268  21.4021725  49.1856983
 114.8050866  20.4191241  48.7943324 116.1226502  16.7951203  45.8376743
 115.4536877  17.2797331  45.3540783 115.9839372  17.0420424  46.7520122
 120.2631771  18.8294947  52.4359402 120.8150079  18.9926568  53.2008487
 120.6037964  19.4199385  51.7639426 120.4318194  18.5491338  46.6813432
 119.9923184  18.0567717  47.3746289 121.1826311  18.0064306  46.4405508
 113.2231244  16.8715493  48.4051875 113.0885712  16.1115894  47.8389873
 112.8063306  17.5956393  47.9380664 116.3800370  17.7684810  48.6170318
 116.2632754  18.7130243  48.5149008 115.5592816  17.4658372  49.0056117
 117.4054884  18.4213072  51.8326246 118.3082130  18.4536682  52.1492741
 117.1792254  17.4913523  51.8472582 121.9096236  20.4064978  50.7405322
 122.1604274  21.2911988  51.0062897 122.4455784  20.2269579  49.9680413
 119.1231280  23.5796880  47.2701277 119.8102320  23.2658610  46.6822292
 118.9679409  24.4838245  46.9968528 118.6999256  21.6597474  49.5418744
 118.7383355  21.1261064  50.3355862 118.1939549  21.1332679  48.9229721
 121.9512892  27.9881123  47.6426994 121.1144801  27.5603297  47.4610995
 121.9236538  28.1813566  48.5797785 121.2662389  21.0490471  47.4275926
 120.9465173  20.1955779  47.1350300 120.7195817  21.2639049  48.1833894
 121.1350649  24.6693383  49.3969048 120.4414120  24.2547335  48.8839002
 121.8823640  24.7113919  48.8002467 121.5509066  19.5627041  54.6544672
 122.1967929  19.0525995  55.1431897 121.3426217  20.2995723  55.2288097
  25.3285571  63.4409924 119.1719182  24.6547270  63.7441621 119.7804140
  25.7151393  64.2439004 118.8224639  27.4193041  55.2318137 117.7066623
  26.8022212  54.5064965 117.6099675  26.9509530  55.9927497 117.3633697
  29.2942312  61.0195408 120.4459006  29.9893217  61.6402100 120.6646320
  29.6365462  60.1690759 120.7211384  23.3857181  61.1257159 119.3534099
  22.8131148  61.7447346 118.9004571  23.9589974  61.6756521 119.8874021
  26.6054440  61.4094309 120.4842681  27.5385113  61.3439871 120.6875557
  26.5177653  62.2450576 120.0257214  29.2342457  60.7260180 117.4446629
  29.1556089  60.3920043 118.3382387  30.0552124  61.2181948 117.4438101
  26.8046409  58.0428175 117.0656607  27.5082259  58.2478178 117.6814263
  26.0809058  58.6104937 117.3305691  28.7133106  58.4810704 119.1155067
  29.5478710  58.0491903 118.9332542  28.5517449  58.3092718 120.0431962
  37.3417381  68.9980355 129.2110244  37.9795791  68.8787103 128.5073584
  37.2238224  69.9461199 129.2698196  34.1507088  68.9507783 129.1471769
  33.8125599  68.8348848 128.2592304  35.0196856  68.5498949 129.1272775
  30.0093903  70.8043260 125.1368660  29.4458768  70.7133197 124.3684948
  29.8946298  69.9843164 125.6171152  35.5893462  74.4714228 120.4483125
  34.9381442  75.0568308 120.0617139  36.3837825  75.0020423 120.5078162
  29.5149089  71.5603365 120.8470259  30.2879965  71.0132352 120.7083135
  29.8674488  72.4247614 121.0584720  31.8515367  67.7196031 118.4788709
  32.1040888  67.1977552 117.7172172  30.9139926  67.5562176 118.5815393
  36.8958650  66.7231809 126.2863452  37.6821739  66.3051232 125.9353869
  37.1597354  67.6277901 126.4545101  37.0668727  72.1604660 120.9852109
  36.4314560  72.2339286 121.6973014  36.7366134  72.7498258 120.3071188
  42.2967077  66.6607042 127.1896431  43.0292249  66.0906259 127.4234260
  41.5406433  66.2728643 127.6302936  31.5711656  69.6224137 120.6813084
  31.4547914  68.9469040 121.3494168  31.6813916  69.1356511 119.8645237
  33.9143197  69.0834284 124.3859773  33.5501404  68.5564905 125.0972695
  34.7710313  68.6932753 124.2126259  33.5548684  64.1124184 119.3821122
  33.7223086  64.9804420 119.7491593  33.3645853  64.2751465 118.4582411
  36.3124017  72.5741163 131.0486952  36.0124740  73.4766201 130.9402759
  35.9675076  72.3073346 131.9008105  39.7121161  65.0923703 128.7284389
  38.8038038  65.0239111 128.4343150  39.6608756  65.5695648 129.5566215
  33.5337904  66.5681841 120.3667789  33.4137530  67.0138892 121.2053269
  32.8390493  66.9167159 119.8081327  31.2944797  79.3385483 124.0157920
  31.2168826  80.2893308 124.0946400  30.6906440  78.9931355 124.6732846
  39.2322971  67.0403314 121.1948123  40.1440827  67.2730701 121.0195820
  38.7232618  67.6240359 120.6323201  37.8392553  72.0229133 128.5861704
  37.2101415  72.1874847 127.8837772  37.4518215  72.4370742 129.3572668
  41.7181785  72.9583571 125.9406068  41.0332823  73.3382472 125.3903101
  41.8025634  73.5678897 126.6738016  33.3920515  71.7603541 125.8511789
  33.8558860  72.0391244 125.0616412  33.1277313  70.8586985 125.6684880
  32.3289401  67.8826693 122.6601354  33.0313444  68.3347737 123.1275281
  31.9970029  67.2410512 123.2881247  40.0878544  73.4815485 130.7123769
  40.9095988  73.0795672 130.4306450  40.0840947  73.3783719 131.6639884
  48.1784537  69.8254234 127.0608740  47.4248246  69.2561632 126.9052745
  48.3132079  69.7916898 128.0079375  33.5683165  74.6967636 122.7363459
  33.4328840  75.5419172 123.1648307  34.1092978  74.8986913 121.9729393
  27.0212563  72.2143074 123.3091385  27.5337083  73.0086324 123.4596949
  27.6735276  71.5169364 123.2424986  28.8307448  75.3308830 125.3914138
  29.0074076  76.2526795 125.2035122  29.6264281  75.0167249 125.8208518
  24.9861480  70.5431728 124.0850955  25.8236702  70.9528737 123.8684663
  25.1639747  69.6031170 124.0551149  36.8825912  68.2106809 119.7734788
  36.3672535  68.9811413 120.0123175  36.6103220  67.5371945 120.3967850
  34.4673023  63.0556510 124.8320026  33.6114619  62.6663360 124.6525665
  34.8799975  63.1348470 123.9719812  41.8560186  70.9639163 121.7087962
  41.0789629  70.6250323 121.2643124  42.5351667  70.9691787 121.0342927
  36.6712215  66.0833901 121.5994569  36.3662351  66.3980050 122.4504712
  37.6242657  66.1615321 121.6421902  35.1158647  72.2424124 123.2487523
  34.5880008  71.5076884 122.9360761  34.6146150  73.0198801 123.0027492
  40.0951493  70.4373145 128.3654570  39.4375167  71.1272406 128.4534698
  40.8991892  70.8269577 128.7088556  38.9056952  68.7917517 126.4158511
  39.4188833  69.4247509 126.9180221  39.5558175  68.1918713 126.0501871
  30.1746962  64.9348252 119.6290020  29.3384274  65.2722938 119.9499295
  30.0351731  64.7997231 118.6917157  33.2611247  70.0604335 116.2522496
  32.3538309  69.8293588 116.4513645  33.7582279  69.2641954 116.4396478
  36.1679326  78.7701842 119.1719182  35.4941025  79.0733538 119.7804140
  36.5545148  79.5730922 118.8224639  36.1672830  67.6658389 123.7919532
  36.9144649  68.1779786 123.4826654  36.4364420  67.3442441 124.6523926
  34.4399480  70.1616929 120.7746486  33.5310700  69.8775962 120.8718956
  34.4694564  70.5816008 119.9149793  39.6718748  73.7723519 124.5437654
  39.2181075  72.9314429 124.6002844  39.0412715  74.4084917 124.8812434
  38.6151667  64.7015505 125.7738321  37.8774424  64.1892891 126.1048564
  38.8678441  64.2615887 124.9621598  38.1151687  75.6100016 125.4787472
  38.4074661  76.1705073 124.7599838  38.6250308  75.9028577 126.2340631
  32.9884374  67.7745550 126.8756282  33.0432984  66.8219386 126.7998758
  32.1775576  67.9304989 127.3597580  34.1375568  71.7025673 118.1134565
  33.6994998  70.9861532 117.6540202  34.8786009  71.9301788 117.5519656
  30.9276734  66.3922610 124.6346661  30.1144600  66.6916780 125.0411853
  31.4235729  65.9978298 125.3521143  33.0785312  76.3880367 126.5680925
  33.0361491  76.6141213 125.6389457  33.9948011  76.1543741 126.7166726
  42.2548683  69.9782870 124.1710883  42.1166582  70.1684466 123.2432073
  41.8984902  70.7402253 124.6278935  42.2818063  72.0459397 129.1822155
  42.7154569  71.9534686 130.0305209  42.9949643  72.0216898 128.5442171
  31.1951113  73.2643396 126.3642888  31.9891712  72.7693716 126.1625463
  30.4842805  72.7361259 126.0010594  36.0145958  75.6461491 130.7155256
  36.0682980  76.2152428 131.4832971  35.1460739  75.8163376 130.3509293
  27.5033877  67.4086477 122.4402641  26.5731465  67.3470933 122.6572603
  27.5991348  66.8862430 121.6439282  43.1433612  72.0883098 131.7155040
  43.3369502  72.9928908 131.9614315  43.0434230  71.6290517 132.5493625
  33.7722389  73.8372418 130.0440725  33.6333475  73.4691202 130.9166663
  32.9836985  74.3520057 129.8724683  34.3670541  78.9381514 121.3866262
  34.5422297  78.4669557 122.2011884  33.6803329  79.5647280 121.6147522
  35.3227604  73.2154020 127.4329563  34.9877437  73.1754790 128.3287213
  34.8231550  72.5498736 126.9599973  38.2586796  70.5610055 117.7066623
  37.6415966  69.8356883 117.6099675  37.7903284  71.3219415 117.3633697
  30.0485342  64.7795479 116.8287927  29.1714808  64.6584280 116.4650173
  30.5243095  63.9881557 116.5766815  33.2349268  77.1321769 124.0750447
  32.4516790  77.6743450 124.1688672  33.9342013  77.6495749 124.4744688
  36.5445918  62.9416399 126.7184653  37.0414617  62.1886361 126.3985723
  35.7732899  62.9780715 126.1527862  44.3975675  68.6456764 128.3602944
  44.3865552  69.5281480 127.9896877  43.5293055  68.2928315 128.1657481
  37.6275699  71.6988086 124.2923076  36.6931977  71.8189548 124.1227780
  37.8052367  70.7960553 124.0283086  41.0148250  67.5405405 124.8273110
  41.4808702  68.3733397 124.7533413  41.4655750  67.0750387 125.5318369
  39.0824481  73.8849227 121.8259262  39.3584325  73.7705821 122.7353136
  38.2128980  73.4866711 121.7871435  35.7178545  78.1335577 125.4692076
  35.9000940  77.3157233 125.9319828  36.5411531  78.3503270 125.0316966
  36.0520711  77.0603763 122.7307124  36.5808477  76.5496217 122.1177286
  36.3148930  76.7446293 123.5952657  24.7764036  66.3737334 122.2700832
  25.0717477  65.4648013 122.2167886  23.8752071  66.3525074 121.9481835
  36.6850114  78.0944598 129.0751241  36.5601254  77.2934338 128.5662186
  37.3429205  78.5890792 128.5865211  38.7485023  75.8953618 130.7030791
  37.8015358  75.7758970 130.6309118  39.0967796  75.0076116 130.7857052
  26.5051877  64.0551432 122.3940158  26.1764583  63.1748811 122.2115264
  26.8591248  63.9999101 123.2816547  35.7531456  75.6906335 126.9035143
  35.6056418  74.7623042 127.0842713  36.5784950  75.7126425 126.4192218
  29.6193700  64.3424402 122.7615635  29.9589773  64.8710323 122.0394244
  30.0665821  64.6804808 123.5374202  39.3565578  76.5134893 127.9900016
  40.2812125  76.3077755 127.8524467  39.1880881  76.2651294 128.8989357
  31.6061847  62.8399023 120.9608928  32.3270210  63.2180276 120.4572645
  30.9827152  63.5587900 121.0643906  35.7492970  63.5444172 121.8967260
  35.9656585  64.4268810 121.5956089  35.2687037  63.1530386 121.1672902
  39.1460894  77.0320561 123.3462107  39.3197772  76.4666983 122.5935960
  39.6389785  77.8321456 123.1641597  31.7525471  62.3746814 123.7906465
  31.8741382  61.4463460 123.9897352  31.4627513  62.3885500 122.8784780
  45.0000285  69.7956984 124.9652407  45.4431431  69.0464309 124.5671530
  44.1226796  69.7867120 124.5826139  40.1336067  76.3487325 120.4459006
  40.8286971  76.9694018 120.6646320  40.4759217  75.4982676 120.7211384
  42.0327490  73.7987031 121.9746336  42.5578814  74.1374303 121.2495656
  41.9449842  72.8634046 121.7909471  33.7168150  79.8659014 126.3341590
  33.2773141  79.3735393 127.0274446  34.4676267  79.3231982 126.0933665
  30.7255529  73.9600946 121.8822352  30.8743650  74.6436411 121.2289025
  31.5321973  73.9406036 122.3971808  43.3437468  73.7009342 134.8372284
  43.0522276  74.0639323 135.6735745  42.7309599  72.9876351 134.6585616
  44.5433150  71.2662222 127.3574855  45.3780041  71.7052026 127.5212415
  44.6792279  70.7900875 126.5383100  28.4808162  69.9866124 122.8883421
  28.2354204  69.0828454 123.0863631  28.6504077  69.9883275 121.9462899
  27.7503810  65.7194482 120.3869582  27.0573055  65.7938837 119.7309618
  27.5055562  64.9554825 120.9091099  34.2250935  76.4549077 119.3534099
  33.6524902  77.0739264 118.9004571  34.7983729  77.0048439 119.8874021
  37.4448195  76.7386227 120.4842681  38.3778868  76.6731789 120.6875557
  37.3571408  77.5742494 120.0257214  40.0736211  76.0552097 117.4446629
  39.9949843  75.7211961 118.3382387  40.8945878  76.5473865 117.4438101
  42.7714403  68.9213837 130.6522948  42.7390723  67.9829837 130.8382631
  43.3815026  68.9997873 129.9188773  34.6097734  67.7909890 116.6950152
  35.5556838  67.6616098 116.7638570  34.2311978  67.0524552 117.1719580
  48.5890953  69.9829843 129.7928984  49.3194341  69.7215132 130.3536688
  47.9797898  69.2458565 129.8331052  46.6706250  68.1237706 130.3903436
  45.9439413  67.9893671 129.7819927  46.2553537  68.4314535 131.1960154
  32.7940651  65.7159866 116.6305037  31.8872106  65.4192979 116.7067751
  33.0716632  65.4189684 115.7639323  34.4102716  60.2596756 122.7849278
  33.6003445  59.9143841 123.1604524  35.0987133  59.9504299 123.3736890
  31.5639435  62.5746801 116.7717016  32.4258599  62.9001700 117.0312833
  31.7489779  61.7878297 116.2590082  39.7172072  61.4475328 123.9152239
  39.1370741  62.1060132 123.5330292  39.4508004  60.6252672 123.5039657
  38.4996950  63.6075418 122.9708587  37.6122805  63.8925069 122.7528782
  38.9150939  63.4469181 122.1235864  41.8511486  63.6321939 126.6862927
  42.6271876  64.1218392 126.9587543  41.1259620  64.0579993 127.1434796
  44.2884045  64.3449558 127.7436867  44.8828535  64.1045294 127.0330175
  44.3610628  63.6256689 128.3710404  37.6440163  73.3720093 117.0656607
  38.3476013  73.5770095 117.6814263  36.9202812  73.9396855 117.3305691
  38.4737974  69.1229954 123.1858878  38.4173175  69.5798505 122.3466510
  39.0266316  68.3620639 123.0081720  42.2842779  64.9119686 124.0108997
  42.0279714  64.5116322 124.8417205  41.6595647  65.6263480 123.8859136
  46.5955117  67.6515759 126.5180288  46.0354675  67.7208948 127.2911851
  45.9898621  67.4756744 125.7979785  39.5526861  73.8102622 119.1155067
  40.3872465  73.3783820 118.9332542  39.3911204  73.6384636 120.0431962
  39.2072753  70.3134735 120.4811407  39.1521557  70.1479007 119.5399851
  38.5818808  71.0210768 120.6373596  32.5168878  59.8142844 120.0596725
  32.5047548  60.7584684 120.2164996  33.4092300  59.6312990 119.7656186
  44.9900842  84.2799701 129.1471769  44.6519354  84.1640766 128.2592304
  45.8590610  83.8790866 129.1272775  40.8487658  86.1335178 125.1368660
  40.2852523  86.0425115 124.3684948  40.7340053  85.3135082 125.6171152
  46.4287216  89.8006145 120.4483125  45.7775196  90.3860226 120.0617139
  47.2231579  90.3312340 120.5078162  40.3542844  86.8895282 120.8470259
  41.1273720  86.3424270 120.7083135  40.7068242  87.7539532 121.0584720
  42.6909121  83.0487949 118.4788709  42.9434642  82.5269470 117.7172172
  41.7533681  82.8854094 118.5815393  47.7352404  82.0523727 126.2863452
  48.5215493  81.6343150 125.9353869  47.9991109  82.9569819 126.4545101
  47.9062482  87.4896577 120.9852109  47.2708315  87.5631204 121.6973014
  47.5759888  88.0790176 120.3071188  53.1360831  81.9898960 127.1896431
  53.8686003  81.4198177 127.4234260  52.3800187  81.6020561 127.6302936
  42.4105410  84.9516055 120.6813084  42.2941668  84.2760958 121.3494168
  42.5207670  84.4648428 119.8645237  44.7536951  84.4126202 124.3859773
  44.3895158  83.8856823 125.0972695  45.6104067  84.0224671 124.2126259
  50.6586252  75.7020534 131.6491039  50.3269577  76.5715945 131.4252254
  50.0631865  75.3856818 132.3285070  44.3942438  79.4416101 119.3821122
  44.5616840  80.3096338 119.7491593  44.2039607  79.6043383 118.4582411
  40.6030253  84.3546877 127.0823656  39.6780749  84.2223091 127.2901348
  40.8514666  85.1341096 127.5793599  44.3731659  81.8973759 120.3667789
  44.2531284  82.3430810 121.2053269  43.6784247  82.2459076 119.8081327
  42.1338551  94.6677401 124.0157920  42.0562581  95.6185226 124.0946400
  41.5300195  94.3223273 124.6732846  50.0716725  82.3695232 121.1948123
  50.9834581  82.6022619 121.0195820  49.5626372  82.9532276 120.6323201
  47.4152700  78.5453268 129.4437983  46.5537179  78.8434522 129.7354721
  47.4415135  78.7623667 128.5119016  44.2314269  87.0895459 125.8511789
  44.6952615  87.3683162 125.0616412  43.9671067  86.1878903 125.6684880
  41.1238350  86.6366940 128.7891552  41.6939707  87.0654208 128.1509037
  41.7146462  86.3549525 129.4875738  43.1683155  83.2118611 122.6601354
  43.8707199  83.6639655 123.1275281  42.8363784  82.5702430 123.2881247
  36.9108489  81.4702164 127.9618488  36.1207543  81.7259692 127.4858598
  37.4019737  82.2850501 128.0670528  38.8623235  81.8346743 124.9201965
  38.0654398  81.9465437 125.4385460  38.6348827  82.1733395 124.0542855
  44.4076920  90.0259554 122.7363459  44.2722595  90.8711089 123.1648307
  44.9486732  90.2278831 121.9729393  37.8606317  87.5434992 123.3091385
  38.3730838  88.3378242 123.4596949  38.5129030  86.8461282 123.2424986
  39.6701202  90.6600748 125.3914138  39.8467830  91.5818713 125.2035122
  40.4658036  90.3459167 125.8208518  47.7569384  73.5490115 131.2662353
  47.4133653  74.4391757 131.1901464  48.1248346  73.3591773 130.4031938
  35.8255234  85.8723646 124.0850955  36.6630456  86.2820654 123.8684663
  36.0033502  84.9323088 124.0551149  47.7219666  83.5398726 119.7734788
  47.2066290  84.3103331 120.0123175  47.4496975  82.8663863 120.3967850
  45.3066777  78.3848427 124.8320026  44.4508374  77.9955278 124.6525665
  45.7193729  78.4640388 123.9719812  46.8365924  75.9194771 129.2311586
  46.3330720  75.8824906 128.4179391  47.1296531  76.8287513 129.2908243
  43.0808810  76.0033500 128.2377768  43.9461807  75.8076309 127.8783657
  43.1486319  75.7743852 129.1647125  52.6953940  86.2931081 121.7087962
  51.9183383  85.9542241 121.2643124  53.3745421  86.2983704 121.0342927
  47.5105969  81.4125819 121.5994569  47.2056105  81.7271968 122.4504712
  48.4636412  81.4907238 121.6421902  45.9552401  87.5716042 123.2487523
  45.4273763  86.8368801 122.9360761  45.4539904  88.3490718 123.0027492
  40.6871129  78.2335708 125.6094135  41.2614881  78.0110890 124.8767328
  41.2742111  78.3024403 126.3622736  49.7450706  84.1209435 126.4158511
  50.2582588  84.7539427 126.9180221  50.3951930  83.5210631 126.0501871
  41.0140716  80.2640169 119.6290020  40.1778028  80.6014856 119.9499295
  40.8745486  80.1289149 118.6917157  42.9893797  75.1076957 124.3369204
  42.3358209  74.7925974 123.7125819  42.9474271  74.4852698 125.0629027
  44.1005001  85.3896252 116.2522496  43.1932063  85.1585506 116.4513645
  44.5976033  84.5933871 116.4396478  47.0073080  94.0993759 119.1719182
  46.3334779  94.4025456 119.7804140  47.3938902  94.9022840 118.8224639
  46.2231537  81.5958891 128.6616852  45.3054098  81.8173838 128.5038540
  46.6391681  81.6705201 127.8028559  47.0066585  82.9950306 123.7919532
  47.7538404  83.5071704 123.4826654  47.2758174  82.6734359 124.6523926
  45.2793235  85.4908847 120.7746486  44.3704454  85.2067880 120.8718956
  45.3088319  85.9107926 119.9149793  49.4545422  80.0307423 125.7738321
  48.7168179  79.5184809 126.1048564  49.7072195  79.5907804 124.9621598
  49.5557049  72.8083675 126.3680091  49.8615926  71.9481038 126.0806006
  50.2809654  73.4001295 126.1679085  35.8481405  83.2114361 124.7561689
  35.6505805  82.6183722 124.0312755  35.2928069  82.9066571 125.4737627
  43.8278129  83.1037468 126.8756282  43.8826739  82.1511304 126.7998758
  43.0169331  83.2596907 127.3597580  44.9769323  87.0317591 118.1134565
  44.5388753  86.3153450 117.6540202  45.7179764  87.2593706 117.5519656
  41.7670489  81.7214527 124.6346661  40.9538354  82.0208698 125.0411853
  42.2629483  81.3270216 125.3521143  53.0942437  85.3074788 124.1710883
  52.9560336  85.4976384 123.2432073  52.7378656  86.0694171 124.6278935
  41.2584564  79.2932883 130.2507896  41.8983943  79.1521642 129.5530859
  40.4262094  79.0067396 129.8746498  42.0344868  88.5935313 126.3642888
  42.8285466  88.0985633 126.1625463  41.3236560  88.0653176 126.0010594
  38.3427631  82.7378395 122.4402641  37.4125219  82.6762851 122.6572603
  38.4385103  82.2154348 121.6439282  38.2613180  79.2633208 125.0280882
  38.5219997  80.1778541 124.9190043  39.0830352  78.7957650 125.1777495
  45.2064295  94.2673432 121.3866262  45.3816051  93.7961475 122.2011884
  44.5197084  94.8939198 121.6147522  49.0980550  85.8901972 117.7066623
  48.4809721  85.1648801 117.6099675  48.6297039  86.6511333 117.3633697
  40.8879096  80.1087397 116.8287927  40.0108563  79.9876197 116.4650173
  41.3636849  79.3173475 116.5766815  44.0743022  92.4613687 124.0750447
  43.2910544  93.0035367 124.1688672  44.7735767  92.9787667 124.4744688
  47.3839672  78.2708316 126.7184653  47.8808372  77.5178279 126.3985723
  46.6126654  78.3072633 126.1527862  48.4669453  87.0280004 124.2923076
  47.5325732  87.1481466 124.1227780  48.6446122  86.1252470 124.0283086
  43.9674641  80.4125699 126.4456337  43.5972429  79.8596740 127.1337243
  44.4633734  79.8083833 125.8931337  51.8542004  82.8697323 124.8273110
  52.3202457  83.7025315 124.7533413  52.3049505  82.4042305 125.5318369
  49.9218236  89.2141144 121.8259262  50.1978079  89.0997739 122.7353136
  49.0522734  88.8158629 121.7871435  49.8258667  75.2377910 128.8664012
  48.9121747  75.4682137 129.0346218  50.2551769  75.3216354 129.7178044
  46.8914465  92.3895680 122.7307124  47.4202231  91.8788135 122.1177286
  47.1542685  92.0738210 123.5952657  39.3639975  77.8229690 132.6909443
  39.4281301  78.6844521 132.2786841  39.3007095  77.2103692 131.9581802
  35.6157790  81.7029252 122.2700832  35.9111231  80.7939930 122.2167886
  34.7145826  81.6816991 121.9481835  39.1452037  79.7785248 128.2528381
  38.4238623  80.3921216 128.1135854  39.9345293  80.3143013 128.1745027
  37.3445632  79.3843350 122.3940158  37.0158338  78.5040728 122.2115264
  37.6985002  79.3291018 123.2816547  40.4587455  79.6716319 122.7615635
  40.7983527  80.2002241 122.0394244  40.9059575  80.0096725 123.5374202
  43.1530896  78.0553370 132.2118703  42.8127716  77.2561183 132.6139383
  42.4469902  78.3555081 131.6395537  43.8047367  75.1402682 130.6646026
  44.6273437  74.6663161 130.5424917  44.0485431  75.9193166 131.1644713
  42.4455602  78.1690941 120.9608928  43.1663964  78.5472194 120.4572645
  41.8220906  78.8879818 121.0643906  46.5886725  78.8736090 121.8967260
  46.8050339  79.7560728 121.5956089  46.1080792  78.4822303 121.1672902
  41.3285946  81.8321803 128.4738005  41.1830527  82.1462106 129.3662286
  40.8511150  82.4506703 127.9208904  43.1882329  78.8224351 128.5218895
  43.1743898  77.9265444 128.1851192  43.9054757  78.8295015 129.1557181
  45.0408460  79.2561691 130.5672022  44.7826238  80.1778762 130.5656352
  44.5093500  78.8592126 131.2572486  42.5919225  77.7038731 123.7906465
  42.7135136  76.7755378 123.9897352  42.3021267  77.7177417 122.8784780
  45.4610415  75.3893642 126.9273185  45.4832112  75.4532975 125.9725164
  45.8778474  74.5498150 127.1213691  50.9729821  91.6779243 120.4459006
  51.6680726  92.2985936 120.6646320  51.3152971  90.8274594 120.7211384
  52.8721244  89.1278948 121.9746336  53.3972568  89.4666221 121.2495656
  52.7843597  88.1925964 121.7909471  41.5649284  89.2892864 121.8822352
  41.7137404  89.9728328 121.2289025  42.3715727  89.2697954 122.3971808
  39.3201917  85.3158042 122.8883421  39.0747959  84.4120372 123.0863631
  39.4897832  85.3175192 121.9462899  47.0098627  76.1881718 132.2708176
  47.5280571  76.9242745 131.9454665  46.6553760  76.4945711 133.1054935
  38.5897565  81.0486399 120.3869582  37.8966809  81.1230754 119.7309618
  38.3449316  80.2846743 120.9091099  47.2611221  72.6082001 127.7909073
  47.5412975  71.9405190 128.4169499  48.0461828  72.8011096 127.2783737
  45.0644690  91.7840995 119.3534099  44.4918657  92.4031182 118.9004571
  45.6377483  92.3340356 119.8874021  48.2841949  92.0678145 120.4842681
  49.2172622  92.0023706 120.6875557  48.1965162  92.9034412 120.0257214
  50.9129966  91.3844015 117.4446629  50.8343598  91.0503879 118.3382387
  51.7339633  91.8765783 117.4438101  45.4491488  83.1201807 116.6950152
  46.3950593  82.9908015 116.7638570  45.0705733  82.3816469 117.1719580
  51.4213373  74.7857813 126.6577044  51.2238194  74.4772902 127.5420375
  52.0313078  75.5119452 126.7874973  43.6334405  81.0451784 116.6305037
  42.7265861  80.7484896 116.7067751  43.9110386  80.7481602 115.7639323
  45.2496471  75.5888673 122.7849278  44.4397199  75.2435758 123.1604524
  45.9380888  75.2796217 123.3736890  47.1787019  74.6666720 124.4073575
  47.7318058  75.0862174 125.0663598  47.4157106  73.7402468 124.4496531
  42.4033190  77.9038719 116.7717016  43.2652354  78.2293617 117.0312833
  42.5883534  77.1170215 116.2590082  50.5565826  76.7767245 123.9152239
  49.9764495  77.4352049 123.5330292  50.2901759  75.9544590 123.5039657
  49.0069393  76.1772303 126.1173559  49.5069171  76.2888838 125.3087878
  49.6505001  75.8733356 126.7574368  49.3390704  78.9367336 122.9708587
  48.4516559  79.2216986 122.7528782  49.7544693  78.7761099 122.1235864
  52.6905240  78.9613857 126.6862927  53.4665631  79.4510309 126.9587543
  51.9653375  79.3871911 127.1434796  55.1277799  79.6741476 127.7436867
  55.7222290  79.4337212 127.0330175  55.2004383  78.9548607 128.3710404
  48.4833918  88.7012010 117.0656607  49.1869768  88.9062013 117.6814263
  47.7596567  89.2688772 117.3305691  49.3131728  84.4521872 123.1858878
  49.2566929  84.9090423 122.3466510  49.8660071  83.6912556 123.0081720
  53.1236534  80.2411604 124.0108997  52.8673468  79.8408239 124.8417205
  52.4989402  80.9555397 123.8859136  50.3920615  89.1394540 119.1155067
  51.2266219  88.7075738 118.9332542  50.2304958  88.9676553 120.0431962
  50.0466507  85.6426653 120.4811407  49.9915311  85.4770924 119.5399851
  49.4212563  86.3502686 120.6373596  43.3562633  75.1434762 120.0596725
  43.3441303  76.0876602 120.2164996  44.2486055  74.9604907 119.7656186
  47.1714752  71.7377539 124.3142662  46.4047148  71.1836025 124.4599344
  47.5825457  71.8099407 125.1756814  51.8534470  95.5932087 119.6290020
  51.0171783  95.9306773 119.9499295  51.7139240  95.4581067 118.6917157
  51.7272851  95.4379314 116.8287927  50.8502317  95.3168115 116.4650173
  52.2030604  94.6465393 116.5766815  49.4291319  96.3778317 120.3869582
  48.7360564  96.4522672 119.7309618  49.1843071  95.6138661 120.9091099
  54.4728160  96.3743701 116.6305037  53.5659615  96.0776814 116.7067751
  54.7504141  96.0773519 115.7639323  53.2426944  93.2330637 116.7717016
  54.1046108  93.5585535 117.0312833  53.4277288  92.4462132 116.2590082
  54.1956387  90.4726680 120.0596725  54.1835057  91.4168520 120.2164996
  55.0879809  90.2896825 119.7656186  25.3285573  40.4472047 105.8964489
  24.6547271  40.7503743 106.5049447  25.7151395  41.2501127 105.5469946
  27.4193043  32.2380260 104.4311929  26.8022213  31.5127088 104.3344982
  26.9509531  32.9989620 104.0879003  29.2942313  38.0257530 107.1704312
  29.9893218  38.6464223 107.3891627  29.6365463  37.1752881 107.4456690
  23.3857182  38.1319282 106.0779406  22.8131149  38.7509469 105.6249878
  23.9589975  38.6818643 106.6119328  26.6054442  38.4156432 107.2087988
  27.5385115  38.3501994 107.4120864  26.5177654  39.2512699 106.7502521
  29.2342458  37.7322302 104.1691936  29.1556090  37.3982166 105.0627694
  30.0552125  38.2244070 104.1683408  26.8046410  35.0490298 103.7901914
  27.5082260  35.2540300 104.4059570  26.0809059  35.6167060 104.0550998
  28.7133107  35.4872827 105.8400374  29.5478711  35.0554025 105.6577849
  28.5517450  35.3154841 106.7677269  37.3417383  46.0042478 115.9355551
  37.9795792  45.8849225 115.2318891  37.2238225  46.9523322 115.9943503
  34.1507089  45.9569906 115.8717076  33.8125600  45.8410971 114.9837610
  35.0196857  45.5561071 115.8518082  30.0093905  47.8105382 111.8613966
  29.4458770  47.7195319 111.0930254  29.8946300  46.9905287 112.3416459
  35.5893463  51.4776350 107.1728431  34.9381443  52.0630431 106.7862445
  36.3837826  52.0082545 107.2323469  29.5149090  48.5665487 107.5715566
  30.2879966  48.0194474 107.4328442  29.8674489  49.4309737 107.7830027
  31.8515368  44.7258153 105.2034016  32.1040889  44.2039675 104.4417479
  30.9139927  44.5624299 105.3060699  36.8958651  43.7293932 113.0108759
  37.6821740  43.3113355 112.6599176  37.1597355  44.6340024 113.1790407
  37.0668728  49.1666782 107.7097416  36.4314561  49.2401409 108.4218320
  36.7366135  49.7560381 107.0316495  42.2967078  43.6669165 113.9141737
  43.0292250  43.0968382 114.1479567  41.5406434  43.2790765 114.3548243
  31.5711657  46.6286259 107.4058391  31.4547915  45.9531163 108.0739475
  31.6813917  46.1418633 106.5890544  33.9143198  46.0896407 111.1105080
  33.5501405  45.5627027 111.8218001  34.7710314  45.6994876 110.9371565
  33.5548685  41.1186306 106.1066428  33.7223087  41.9866543 106.4736899
  33.3645854  41.2813588 105.1827718  36.3124018  49.5803285 117.7732259
  36.0124741  50.4828324 117.6648066  35.9675078  49.3135468 118.6253412
  39.7121162  42.0985825 115.4529696  38.8038039  42.0301234 115.1588457
  39.6608758  42.5757770 116.2811522  33.5337906  43.5743964 107.0913095
  33.4137531  44.0201014 107.9298575  32.8390494  43.9229281 106.5326633
  31.2944798  56.3447605 110.7403226  31.2168828  57.2955431 110.8191707
  30.6906441  55.9993478 111.3978153  39.2322972  44.0465437 107.9193429
  40.1440828  44.2792824 107.7441127  38.7232619  44.6302481 107.3568508
  37.8392554  49.0291255 115.3107011  37.2101417  49.1936969 114.6083079
  37.4518216  49.4432865 116.0817975  41.7181786  49.9645693 112.6651374
  41.0332824  50.3444595 112.1148408  41.8025635  50.5741020 113.3983322
  33.3920516  48.7665663 112.5757096  33.8558862  49.0453366 111.7861718
  33.1277314  47.8649108 112.3930186  32.3289402  44.8888816 109.3846661
  33.0313445  45.3409859 109.8520587  31.9970031  44.2472635 110.0126554
  40.0878546  50.4877608 117.4369075  40.9095989  50.0857795 117.1551757
  40.0840949  50.3845842 118.3885191  48.1784539  46.8316356 113.7854047
  47.4248247  46.2623754 113.6298051  48.3132080  46.7979021 114.7324681
  33.5683167  51.7029758 109.4608766  33.4328842  52.5481294 109.8893614
  34.1092979  51.9049036 108.6974700  27.0212564  49.2205196 110.0336691
  27.5337085  50.0148447 110.1842256  27.6735277  48.5231487 109.9670293
  28.8307449  52.3370953 112.1159444  29.0074077  53.2588917 111.9280428
  29.6264282  52.0229372 112.5453824  29.9538764  53.8549127 118.1169787
  30.5046189  53.7266190 117.3446781  29.1150240  54.1544016 117.7664680
  24.9861481  47.5493851 110.8096262  25.8236703  47.9590859 110.5929969
  25.1639749  46.6093293 110.7796456  36.8825913  45.2168931 106.4980095
  36.3672536  45.9873536 106.7368482  36.6103221  44.5434068 107.1213156
  34.4673024  40.0618632 111.5565333  33.6114620  39.6725483 111.3770972
  34.8799976  40.1410593 110.6965119  41.8560187  47.9701286 108.4333268
  41.0789630  47.6312446 107.9888430  42.5351668  47.9753909 107.7588233
  36.6712216  43.0896024 108.3239876  36.3662352  43.4042173 109.1750019
  37.6242658  43.1677443 108.3667209  35.1158648  49.2486247 109.9732830
  34.5880010  48.5139006 109.6606067  34.6146151  50.0260923 109.7272798
  40.0951494  47.4435267 115.0899876  39.4375169  48.1334529 115.1780005
  40.8991893  47.8331699 115.4333863  38.9056953  45.7979640 113.1403818
  39.4188835  46.4309632 113.6425528  39.5558177  45.1980836 112.7747178
  30.1746963  41.9410374 106.3535327  29.3384275  42.2785061 106.6744601
  30.0351732  41.8059354 105.4162464  33.2611248  47.0666457 102.9767803
  32.3538310  46.8355711 103.1758952  33.7582280  46.2704076 103.1641784
  36.1679327  55.7763964 105.8964489  35.4941026  56.0795661 106.5049447
  36.5545149  56.5793045 105.5469946  36.1672831  44.6720511 110.5164839
  36.9144650  45.1841908 110.2071961  36.4364421  44.3504564 111.3769232
  34.4399482  47.1679052 107.4991793  33.5310701  46.8838085 107.5964263
  34.4694565  47.5878131 106.6395100  39.6718749  50.7785641 111.2682961
  39.2181076  49.9376551 111.3248151  39.0412716  51.4147040 111.6057741
  38.6151669  41.7077627 112.4983628  37.8774425  41.1955014 112.8293871
  38.8678442  41.2678009 111.6866905  38.1151688  52.6162138 112.2032779
  38.4074663  53.1767195 111.4845144  38.6250309  52.9090699 112.9585938
  32.9884376  44.7807673 113.6001588  33.0432985  43.8281509 113.5244065
  32.1775578  44.9367112 114.0842887  34.1375569  48.7087796 104.8379872
  33.6994999  47.9923655 104.3785509  34.8786010  48.9363910 104.2764963
  30.9276736  43.3984732 111.3591967  30.1144601  43.6978903 111.7657159
  31.4235730  43.0040421 112.0766449  33.0785314  53.3942489 113.2926232
  33.0361492  53.6203336 112.3634764  33.9948012  53.1605864 113.4412033
  42.2548684  46.9844993 110.8956190  42.1166583  47.1746589 109.9677379
  41.8984903  47.7464375 111.3524241  42.2818064  49.0521520 115.9067462
  42.7154571  48.9596809 116.7550516  42.9949645  49.0279020 115.2687478
  31.1951114  50.2705518 113.0888195  31.9891713  49.7755838 112.8870770
  30.4842807  49.7423381 112.7255900  36.0145959  52.6523614 117.4400562
  36.0682981  53.2214550 118.2078278  35.1460740  52.8225499 117.0754599
  27.5033878  44.4148600 109.1647947  26.5731466  44.3533055 109.3817909
  27.5991350  43.8924553 108.3684589  43.1433613  49.0945220 118.4400347
  43.3369504  49.9991031 118.6859622  43.0434232  48.6352639 119.2738932
  33.7722390  50.8434540 116.7686032  33.6333476  50.4753325 117.6411970
  32.9836987  51.3582180 116.5969990  34.3670542  55.9443637 108.1111568
  34.5422298  55.4731680 108.9257191  33.6803330  56.5709403 108.3392829
  35.3227605  50.2216143 114.1574869  34.9877438  50.1816913 115.0532519
  34.8231551  49.5560859 113.6845280  38.2586797  47.5672177 104.4311929
  37.6415968  46.8419005 104.3344982  37.7903286  48.3281538 104.0879003
  28.9331628  59.0932999 114.8851428  29.1728226  59.7251524 115.5630447
  28.0900824  58.7421039 115.1716788  30.0485343  41.7857602 103.5533233
  29.1714809  41.6646402 103.1895480  30.5243096  40.9943680 103.3012122
  33.4459489  54.9012122 117.2892932  33.3729661  55.7067093 117.8012237
  33.0036883  55.1004088 116.4640954  33.2349269  54.1383892 110.7995754
  32.4516791  54.6805572 110.8933978  33.9342014  54.6557872 111.1989995
  36.5445919  39.9478521 113.4429959  37.0414619  39.1948484 113.1231030
  35.7732901  39.9842838 112.8773169  44.3975677  45.6518887 115.0848251
  44.3865553  46.5343602 114.7142184  43.5293056  45.2990438 114.8902788
  35.9058173  54.7998956 119.4451091  36.6186145  55.4346421 119.3726993
  35.4148202  54.8962822 118.6291093  37.6275700  48.7050209 111.0168383
  36.6931979  48.8251671 110.8473087  37.8052368  47.8022675 110.7528393
  41.0148251  44.5467528 111.5518417  41.4808703  45.3795519 111.4778720
  41.4655752  44.0812509 112.2563675  39.0824482  50.8911349 108.5504569
  39.3584326  50.7767944 109.4598443  38.2128981  50.4928834 108.5116742
  35.7178546  55.1397700 112.1937383  35.9000941  54.3219356 112.6565135
  36.5411532  55.3565392 111.7562273  36.0520712  54.0665885 109.4552431
  36.5808478  53.5558340 108.8422593  36.3148931  53.7508415 110.3197964
  29.4076460  55.1181002 112.2150207  28.7386835  55.6027129 111.7314247
  29.2689329  55.3650222 113.1293585  33.5481728  57.1524745 118.8132865
  34.1000036  57.3156367 119.5781951  33.8887922  57.7429183 118.1412890
  24.7764037  43.3799457 108.9946139  25.0717478  42.4710135 108.9413193
  23.8752073  43.3587196 108.6727141  36.6850116  55.1006721 115.7996547
  36.5601255  54.2996461 115.2907493  37.3429207  55.5952914 115.3110517
  38.7485024  52.9015741 117.4276098  37.8015360  52.7821092 117.3554424
  39.0967797  52.0138239 117.5102359  26.5051878  41.0613554 109.1185464
  26.1764585  40.1810933 108.9360570  26.8591249  41.0061223 110.0061853
  35.7531457  52.6968457 113.6280450  35.6056420  51.7685165 113.8088020
  36.5784951  52.7188548 113.1437525  29.6193702  41.3486524 109.4860942
  29.9589774  41.8772446 108.7639550  30.0665822  41.6866930 110.2619508
  39.3565579  53.5197016 114.7145323  40.2812127  53.3139877 114.5769774
  39.1880883  53.2713417 115.6234664  31.6061849  39.8461146 107.6854235
  32.3270211  40.2242399 107.1817952  30.9827153  40.5650023 107.7889213
  35.7492972  40.5506295 108.6212567  35.9656586  41.4330933 108.3201395
  35.2687039  40.1592508 107.8918209  39.1460895  54.0382683 110.0707414
  39.3197773  53.4729106 109.3181266  39.6389787  54.8383578 109.8886904
  31.7525472  39.3808936 110.5151771  31.8741383  38.4525583 110.7142659
  31.4627514  39.3947622 109.6030087  45.0000287  46.8019106 111.6897714
  45.4431433  46.0526432 111.2916837  44.1226797  46.7929243 111.3071446
  40.1336068  53.3549448 107.1704312  40.8286972  53.9756140 107.3891627
  40.4759218  52.5044799 107.4456690  42.0327491  50.8049153 108.6991643
  42.5578815  51.1436426 107.9740963  41.9449844  49.8696169 108.5154778
  33.7168152  56.8721137 113.0586896  33.2773142  56.3797515 113.7519753
  34.4676269  56.3294104 112.8178971  26.1960491  53.0632677 113.0611524
  27.0218511  52.7636449 112.6810168  25.8454543  52.2940300 113.5101313
  31.1642024  52.4159146 115.1309198  30.5422033  51.7529851 114.8311426
  31.8346891  52.4420278 114.4482846  24.3969096  50.9819004 114.0200458
  23.5601004  50.5541178 113.8384459  24.3692741  51.1751447 114.9571249
  30.7255531  50.9663069 108.6067658  30.8743651  51.6498533 107.9534331
  31.5321974  50.9468159 109.1217114  43.3437469  50.7071465 121.5617591
  43.0522277  51.0701445 122.3981052  42.7309600  49.9938473 121.3830923
  44.5433151  48.2724345 114.0820161  45.3780043  48.7114149 114.2457722
  44.6792280  47.7962998 113.2628407  28.4808164  46.9928247 109.6128727
  28.2354206  46.0890577 109.8108937  28.6504078  46.9945397 108.6708205
  27.7503811  42.7256604 107.1114889  27.0573056  42.8000959 106.4554925
  27.5055563  41.9616948 107.6336406  34.2250936  53.4611199 106.0779406
  33.6524903  54.0801387 105.6249878  34.7983730  54.0110561 106.6119328
  37.4448196  53.7448350 107.2087988  38.3778869  53.6793911 107.4120864
  37.3571409  54.5804616 106.7502521  42.7714404  45.9275959 117.3768254
  42.7390724  44.9891960 117.5627938  43.3815028  46.0059996 116.6434079
  34.6097735  44.7972012 103.4195458  35.5556840  44.6678220 103.4883876
  34.2311980  44.0586674 103.8964887  48.5890954  46.9891966 116.5174291
  49.3194342  46.7277254 117.0781994  47.9797899  46.2520688 116.5576359
  46.6706251  45.1299829 117.1148742  45.9439414  44.9955794 116.5065234
  46.2553538  45.4376657 117.9205460  32.7940652  42.7221989 103.3550344
  31.8872107  42.4255101 103.4313057  33.0716633  42.4251807 102.4884630
  34.4102718  37.2658878 109.5094585  33.6003446  36.9205963 109.8849831
  35.0987135  36.9566422 110.0982196  31.5639437  39.5808924 103.4962323
  32.4258601  39.9063822 103.7558140  31.7489781  38.7940420 102.9835389
  39.7172073  38.4537450 110.6397546  39.1370742  39.1122254 110.2575598
  39.4508006  37.6314795 110.2284963  38.4996951  40.6137541 109.6953894
  37.6122806  40.8987191 109.4774089  38.9150940  40.4531304 108.8481171
  41.8511487  40.6384062 113.4108233  42.6271877  41.1280514 113.6832850
  41.1259621  41.0642116 113.8680103  44.2884046  41.3511681 114.4682174
  44.8828537  41.1107417 113.7575482  44.3610630  40.6318811 115.0955710
  26.5081202  55.1945292 114.7825339  26.3735669  54.4345693 114.2163337
  26.0913264  55.9186192 114.3154128  38.4737975  46.1292077 109.9104184
  38.4173176  46.5860628 109.0711817  39.0266317  45.3682761 109.7327027
  42.2842781  41.9181808 110.7354304  42.0279715  41.5178444 111.5662511
  41.6595649  42.6325602 110.6104443  46.5955119  44.6577882 113.2425595
  46.0354677  44.7271071 114.0157157  45.9898622  44.4818866 112.5225091
  29.6650327  56.0914609 114.9943781  29.5482712  57.0360041 114.8922472
  28.8442774  55.7888170 115.3829581  39.5526862  50.8164745 105.8400374
  40.3872466  50.3845943 105.6577849  39.3911205  50.6446758 106.7677269
  39.2072754  47.3196858 107.2056713  39.1521558  47.1541129 106.2645157
  38.5818809  48.0272891 107.3618903  32.5168880  36.8204967 106.7842032
  32.5047549  37.7646807 106.9410303  33.4092301  36.6375112 106.4901493
  30.6904842  56.7442871 118.2099710  31.5932088  56.7766481 118.5266205
  30.4642212  55.8143322 118.2246046  32.4458444  55.4973857 114.8709788
  31.4954075  55.4975719 114.7574161  32.7490930  54.7506592 114.3545823
  48.1811137  61.3334396 115.9355551  48.8189547  61.2141143 115.2318891
  48.0631980  62.2815240 115.9943503  44.9900843  61.2861824 115.8717076
  44.6519355  61.1702888 114.9837610  45.8590611  60.8852989 115.8518082
  40.8487659  63.1397300 111.8613966  40.2852524  63.0487237 111.0930254
  40.7340054  62.3197205 112.3416459  45.4720626  62.4396675 121.8303281
  45.4609267  62.0449474 120.9583785  45.6341266  61.7062748 122.4237052
  38.3952091  64.6348492 114.6998187  39.1873383  64.2939316 114.2844486
  38.6348741  64.7443467 115.6200340  46.4287218  66.8068268 107.1728431
  45.7775197  67.3922348 106.7862445  47.2231581  67.3374463 107.2323469
  40.3542845  63.8957405 107.5715566  41.1273721  63.3486392 107.4328442
  40.7068244  64.7601654 107.7830027  42.1927887  65.2233787 120.7782465
  41.9017753  66.1279418 120.6629131  42.8284872  65.2650315 121.4926535
  43.1184094  62.6010636 117.3683825  43.7147667  62.3766658 116.6540788
  43.1759066  61.8595381 117.9709273  47.7352406  59.0585849 113.0108759
  48.5215495  58.6405273 112.6599176  47.9991110  59.9631942 113.1790407
  47.9062483  64.4958700 107.7097416  47.2708316  64.5693326 108.4218320
  47.5759889  65.0852299 107.0316495  53.1360833  58.9961083 113.9141737
  53.8686005  58.4260300 114.1479567  52.3800188  58.6082683 114.3548243
  42.4105411  61.9578177 107.4058391  42.2941670  61.2823080 108.0739475
  42.5207671  61.4710551 106.5890544  44.7536952  61.4188324 111.1105080
  44.3895160  60.8918945 111.8218001  45.6104068  61.0286793 110.9371565
  50.6586253  52.7082657 118.3736346  50.3269578  53.5778068 118.1497561
  50.0631866  52.3918941 119.0530376  44.3942439  56.4478224 106.1066428
  44.5616842  57.3158460 106.4736899  44.2039608  56.6105506 105.1827718
  47.1517773  64.9095203 117.7732259  46.8518496  65.8120242 117.6648066
  46.8068832  64.6427386 118.6253412  40.6030254  61.3609000 113.8068963
  39.6780750  61.2285214 114.0146655  40.8514667  62.1403219 114.3038906
  50.5514916  57.4277743 115.4529696  49.6431794  57.3593151 115.1588457
  50.5002512  57.9049688 116.2811522  44.3731660  58.9035881 107.0913095
  44.2531285  59.3492932 107.9298575  43.6784249  59.2521199 106.5326633
  37.9639065  61.0042273 114.6412752  38.0931446  61.2576752 115.5552164
  37.2836516  61.5969981 114.3217407  42.1338552  71.6739523 110.7403226
  42.0562582  72.6247348 110.8191707  41.5300196  71.3285396 111.3978153
  44.6255782  58.8467389 123.3964593  43.8489116  59.4061309 123.3867458
  45.2646345  59.3324172 123.9179463  52.4176563  55.6294181 117.2307570
  51.7750943  55.9226715 116.5847365  51.9131491  55.5147102 118.0360767
  50.0716726  59.3757355 107.9193429  50.9834582  59.6084741 107.7441127
  49.5626373  59.9594399 107.3568508  42.8802154  61.6552842 122.9582560
  43.6216839  62.1937886 122.6817384  42.1739140  62.2819131 123.1154112
  48.3557494  63.7981982 121.5554722  48.7640850  63.3564393 120.8109354
  47.6334756  63.2234610 121.8088915  44.7088564  58.7354589 118.9288279
  45.5549759  59.1594003 119.0722928  44.6487202  58.0788213 119.6226842
  48.6786309  64.3583173 115.3107011  48.0495171  64.5228887 114.6083079
  48.2911971  64.7724783 116.0817975  52.5575541  65.2937611 112.6651374
  51.8726579  65.6736512 112.1148408  52.6419390  65.9032938 113.3983322
  47.8588009  56.3958958 120.5869452  47.6148941  57.1501018 120.0503728
  48.1347940  56.7744305 121.4216699  49.8126472  62.9397570 119.2646718
  50.0243367  63.5829330 118.5881099  49.7656220  62.1059886 118.7968648
  47.4152701  55.5515391 116.1683290  46.5537180  55.8496644 116.4600028
  47.4415136  55.7685789 115.2364323  44.2314271  64.0957581 112.5757096
  44.6952616  64.3745284 111.7861718  43.9671069  63.1941026 112.3930186
  41.1238352  63.6429063 115.5136859  41.6939709  64.0716331 114.8754344
  41.7146463  63.3611647 116.2121045  43.1683157  60.2180733 109.3846661
  43.8707200  60.6701777 109.8520587  42.8363785  59.5764552 110.0126554
  41.6163518  58.8092490 123.7597870  40.9862179  59.4908771 123.9933267
  41.5099606  58.6975572 122.8151009  36.9108491  58.4764286 114.6863794
  36.1207545  58.7321815 114.2103905  37.4019738  59.2912624 114.7915835
  50.9272300  65.8169525 117.4369075  51.7489744  65.4149713 117.1551757
  50.9234703  65.7137759 118.3885191  38.8623236  58.8408865 111.6447271
  38.0654399  58.9527560 112.1630767  38.6348828  59.1795518 110.7788162
  44.6928904  65.3653569 119.5929786  44.7573336  65.8273976 120.4287958
  43.9839827  64.7350934 119.7212096  35.1946194  58.7294777 117.1178785
  35.4454232  59.6141787 117.3836361  35.7305742  58.5499378 116.3453877
  59.0178293  62.1608274 113.7854047  58.2642002  61.5915672 113.6298051
  59.1525834  62.1270938 114.7324681  44.4076921  67.0321676 109.4608766
  44.2722596  67.8773212 109.8893614  44.9486734  67.2340954 108.6974700
  37.8606319  64.5497114 110.0336691  38.3730839  65.3440364 110.1842256
  38.5129031  63.8523405 109.9670293  39.6701203  67.6662870 112.1159444
  39.8467832  68.5880835 111.9280428  40.4658037  67.3521290 112.5453824
  43.8112222  54.5271135 123.7143378  44.5521935  55.1278288 123.6347840
  44.0430145  53.7848773 123.1561420  38.9553560  59.7127502 121.9921608
  38.8407075  58.8112760 122.2928707  38.0998078  59.9591199 121.6406424
  46.0345398  67.6545243 123.5909108  45.5909252  66.8681621 123.2730013
  46.6962611  67.8424393 122.9252999  40.7932519  69.1841044 118.1169787
  41.3439944  69.0558108 117.3446781  39.9543995  69.4835933 117.7664680
  48.1326636  67.9348043 121.6190509  48.1145111  68.7556924 121.1270779
  49.0546556  67.8102118 121.8440651  44.5899690  65.4492172 122.4614018
  45.1228027  64.6880460 122.2313326  44.0613771  65.1565824 123.2038172
  47.7569385  50.5552238 117.9907660  47.4133654  51.4453880 117.9146770
  48.1248347  50.3653896 117.1277245  35.8255235  62.8785768 110.8096262
  36.6630457  63.2882777 110.5929969  36.0033503  61.9385211 110.7796456
  47.7219668  60.5460849 106.4980095  47.2066291  61.3165454 106.7368482
  47.4496976  59.8725985 107.1213156  45.3066779  55.3910550 111.5565333
  44.4508375  55.0017400 111.3770972  45.7193730  55.4702511 110.6965119
  46.8365925  52.9256893 115.9556893  46.3330721  52.8887028 115.1424698
  47.1296532  53.8349636 116.0153550  43.0808811  53.0095623 114.9623075
  43.9461808  52.8138432 114.6028964  43.1486320  52.7805975 115.8892431
  52.6953942  63.2993204 108.4333268  51.9183384  62.9604363 107.9888430
  53.3745423  63.3045827 107.7588233  47.5105971  58.4187941 108.3239876
  47.2056106  58.7334090 109.1750019  48.4636413  58.4969361 108.3667209
  45.9552403  64.5778165 109.9732830  45.4273764  63.8430924 109.6606067
  45.4539905  65.3552841 109.7272798  50.9345249  62.7727185 115.0899876
  50.2768923  63.4626446 115.1780005  51.7385648  63.1623617 115.4333863
  40.6871130  55.2397831 112.3339441  41.2614882  55.0173012 111.6012634
  41.2742113  55.3086525 113.0868043  49.7450707  61.1271558 113.1403818
  50.2582589  61.7601550 113.6425528  50.3951931  60.5272753 112.7747178
  41.0140717  57.2702292 106.3535327  40.1778030  57.6076978 106.6744601
  40.8745487  57.1351272 105.4162464  42.9893798  52.1139080 111.0614511
  42.3358210  51.7988097 110.4371126  42.9474272  51.4914820 111.7874334
  47.0073082  71.1055882 105.8964489  46.3334780  71.4087579 106.5049447
  47.3938904  71.9084962 105.5469946  46.2231538  58.6021013 115.3862158
  45.3054100  58.8235960 115.2283847  46.6391682  58.6767324 114.5273866
  47.0066586  60.0012429 110.5164839  47.7538405  60.5133826 110.2071961
  47.2758176  59.6796482 111.3769232  45.2793236  62.4970970 107.4991793
  44.3704455  62.2130002 107.5964263  45.3088320  62.9170048 106.6395100
  50.5112504  66.1077559 111.2682961  50.0574831  65.2668469 111.3248151
  49.8806470  66.7438958 111.6057741  49.4545423  57.0369545 112.4983628
  48.7168180  56.5246931 112.8293871  49.7072197  56.5969927 111.6866905
  48.9545443  67.9454056 112.2032779  49.2468417  68.5059113 111.4845144
  49.4644063  68.2382617 112.9585938  49.5557050  49.8145797 113.0925397
  49.8615927  48.9543161 112.8051312  50.2809655  50.4063417 112.8924391
  35.8481407  60.2176484 111.4806995  35.6505806  59.6245844 110.7558062
  35.2928071  59.9128694 112.1982934  43.8278130  60.1099590 113.6001588
  43.8826740  59.1573427 113.5244065  43.0169332  60.2659029 114.0842887
  41.7670490  58.7276650 111.3591967  40.9538356  59.0270821 111.7657159
  42.2629484  58.3332339 112.0766449  43.9179068  68.7234407 113.2926232
  43.8755247  68.9495253 112.3634764  44.8341767  68.4897782 113.4412033
  47.3644702  59.1918474 120.1906861  47.7194090  59.4189948 121.0501327
  48.0116833  59.5236851 119.5684116  53.0942439  62.3136910 110.8956190
  52.9560337  62.5038506 109.9677379  52.7378658  63.0756293 111.3524241
  41.2584565  56.2995006 116.9753202  41.8983944  56.1583765 116.2776165
  40.4262095  56.0129519 116.5991804  53.1211818  64.3813437 115.9067462
  53.5548325  64.2888726 116.7550516  53.8343399  64.3570938 115.2687478
  42.0344869  65.5997436 113.0888195  42.8285467  65.1047756 112.8870770
  41.3236561  65.0715299 112.7255900  46.8539713  67.9815531 117.4400562
  46.9076736  68.5506468 118.2078278  45.9854495  68.1517416 117.0754599
  38.3427632  59.7440518 109.1647947  37.4125220  59.6824973 109.3817909
  38.4385104  59.2216470 108.3684589  38.2613181  56.2695330 111.7526189
  38.5219999  57.1840664 111.6435349  39.0830354  55.8019773 111.9022802
  39.7338107  57.6833088 118.9225013  40.4061160  57.4750450 118.2737662
  38.9067893  57.4855174 118.4830246  53.9827368  64.4237138 118.4400347
  54.1763258  65.3282949 118.6859622  53.8827986  63.9644557 119.2738932
  45.6363679  54.3095029 120.9390674  44.9891594  55.0084978 120.8455151
  46.4064694  54.7431173 121.3066923  49.0442477  64.5743881 124.0141228
  48.8927983  64.3454432 123.0971311  49.0347156  65.5314482 124.0272573
  45.8127813  62.1475793 118.9987494  46.7419873  62.2986953 118.8256461
  45.3918843  62.2359814 118.1436141  44.6116145  66.1726458 116.7686032
  44.4727230  65.8045242 117.6411970  43.8230741  66.6874097 116.5969990
  45.2064297  71.2735554 108.1111568  45.3816052  70.8023598 108.9257191
  44.5197085  71.9001321 108.3392829  46.1621360  65.5508061 114.1574869
  45.8271193  65.5108831 115.0532519  45.6625306  64.8852777 113.6845280
  40.1365604  60.9575691 119.6827451  39.9985402  60.2255929 120.2838990
  41.0470527  60.8684591 119.4011638  42.7647905  60.6695650 119.1711130
  43.4747523  60.0288842 119.1297749  42.7217213  60.9208545 120.0937311
  50.7534683  67.6063003 122.0917710  50.6947229  66.9222223 121.4248293
  51.1554202  68.3481993 121.6398336  41.4776839  57.6560868 120.9906770
  40.9414196  57.2051606 121.6428366  40.8893547  57.7906777 120.2477234
  39.7725382  74.4224917 114.8851428  40.0121980  75.0543441 115.5630447
  38.9294579  74.0712957 115.1716788  50.7552091  65.5702587 120.3231689
  49.8678869  65.2328509 120.4458088  51.3250642  64.8385618 120.5600455
  32.4081238  61.9026679 113.6474741  33.0952277  61.5888409 113.0595756
  32.2529366  62.8068044 113.3741992  37.2115960  56.7916876 118.0759764
  37.1274149  56.1842545 117.3410174  36.3898666  57.2825894 118.0769261
  44.2853244  70.2304040 117.2892932  44.2123415  71.0359011 117.8012237
  43.8430637  70.4296005 116.4640954  44.0743024  69.4675810 110.7995754
  43.2910545  70.0097490 110.8933978  44.7735769  69.9849789 111.1989995
  47.3839674  55.2770439 113.4429959  47.8808373  54.5240401 113.1231030
  46.6126655  55.3134756 112.8773169  55.2369431  60.9810805 115.0848251
  55.2259307  61.8635520 114.7142184  54.3686810  60.6282355 114.8902788
  46.7451927  70.1290874 119.4451091  47.4579900  70.7638338 119.3726993
  46.2541956  70.2254740 118.6291093  48.4669454  64.0342126 111.0168383
  47.5325733  64.1543589 110.8473087  48.6446123  63.1314593 110.7528393
  43.9674642  57.4187822 113.1701644  43.5972430  56.8658862 113.8582550
  44.4633735  56.8145956 112.6176644  51.8542006  59.8759446 111.5518417
  52.3202458  60.7087437 111.4778720  52.3049506  59.4104427 112.2563675
  41.7963841  67.8785317 120.2656662  42.4973300  68.5121800 120.4186056
  41.3258956  68.2200049 119.5052301  49.9218237  66.2203267 108.5504569
  50.1978081  66.1059861 109.4598443  49.0522736  65.8220752 108.5116742
  49.8258668  52.2440033 115.5909318  48.9121748  52.4744259 115.7591525
  50.2551770  52.3278477 116.4423351  49.5965127  60.4329925 118.0909212
  48.9436577  60.6805832 117.4361665  49.9745507  59.6194063 117.7571690
  46.5572301  70.4689618 112.1937383  46.7394695  69.6511274 112.6565135
  47.3805287  70.6857310 111.7562273  46.8914466  69.3957803 109.4552431
  47.4202233  68.8850257 108.8422593  47.1542686  69.0800333 110.3197964
  45.6452700  61.1749736 124.5775249  44.9693337  61.0743865 125.2477625
  46.4680334  61.0188949 125.0411247  37.3931559  67.4121672 117.1987765
  37.9784996  66.6665360 117.3315669  37.1956397  67.7225629 118.0824428
  40.2470214  70.4472920 112.2150207  39.5780590  70.9319047 111.7314247
  40.1083084  70.6942140 113.1293585  31.9849214  59.9827272 115.9192208
  32.0233313  59.4490863 116.7129326  31.4789507  59.4562478 115.3003185
  44.3875483  72.4816663 118.8132865  44.9393791  72.6448285 119.5781951
  44.7281676  73.0721101 118.1412890  39.3639976  54.8291813 119.4154750
  39.4281303  55.6906644 119.0032148  39.3007096  54.2165815 118.6827109
  38.8392249  56.9014945 123.0627784  39.4664287  56.5192023 123.6765309
  37.9820167  56.6829147 123.4283477  49.2386357  67.3077921 124.6681520
  49.7826261  67.9207879 124.1736475  48.6573202  67.8657499 125.1848533
  35.6157791  58.7091375 108.9946139  35.9111232  57.8002053 108.9413193
  34.7145827  58.6879114 108.6727141  47.5243870  70.4298639 115.7996547
  47.3995010  69.6288378 115.2907493  48.1822961  70.9244832 115.3110517
  39.1452038  56.7847371 114.9773688  38.4238624  57.3983339 114.8381161
  39.9345294  57.3205136 114.8990334  49.5878778  68.2307659 117.4276098
  48.6409114  68.1113010 117.3554424  49.9361552  67.3430157 117.5102359
  41.9478352  54.1201798 121.2514339  42.4712754  54.3664094 122.0140649
  41.7290685  54.9521832 120.8317477  37.3445633  56.3905472 109.1185464
  37.0158339  55.5102851 108.9360570  37.6985004  56.3353141 110.0061853
  46.5925212  68.0260375 113.6280450  46.4450174  67.0977082 113.8088020
  47.4178705  68.0480466 113.1437525  40.4587456  56.6778442 109.4860942
  40.7983529  57.2064363 108.7639550  40.9059577  57.0158848 110.2619508
  50.1959334  68.8488934 114.7145323  51.1205881  68.6431795 114.5769774
  50.0274637  68.6005335 115.6234664  43.1530897  55.0615493 118.9364010
  42.8127717  54.2623306 119.3384690  42.4469903  55.3617204 118.3640843
  43.8047369  52.1464805 117.3891333  44.6273438  51.6725283 117.2670223
  44.0485432  52.9255289 117.8890019  42.4455603  55.1753064 107.6854235
  43.1663966  55.5534316 107.1817952  41.8220907  55.8941940 107.7889213
  46.5886726  55.8798213 108.6212567  46.8050340  56.7622850 108.3201395
  46.1080793  55.4884426 107.8918209  41.3285947  58.8383926 115.1983312
  41.1830528  59.1524229 116.0907593  40.8511151  59.4568826 114.6454210
  43.1882330  55.8286474 115.2464201  43.1743899  54.9327567 114.9096499
  43.9054758  55.8357137 115.8802487  45.0408461  56.2623814 117.2917329
  44.7826239  57.1840885 117.2901659  44.5093501  55.8654248 117.9817793
  49.9854650  69.3674601 110.0707414  50.1591527  68.8021024 109.3181266
  50.4783541  70.1675496 109.8886904  35.8031610  61.3789270 118.1370973
  35.2585078  62.1549078 118.2691247  36.6810960  61.7260075 117.9790094
  42.5919226  54.7100854 110.5151771  42.7135137  53.7817500 110.7142659
  42.3021269  54.7239540 109.6030087  45.4610417  52.3955764 113.6518491
  45.4832114  52.4595098 112.6970471  45.8778476  51.5560273 113.8458997
  55.8394041  62.1311024 111.6897714  56.2825187  61.3818349 111.2916837
  54.9620551  62.1221160 111.3071446  50.9729822  68.6841365 107.1704312
  51.6680727  69.3048058 107.3891627  51.3152972  67.8336717 107.4456690
  36.5897632  60.5059166 121.0301130  35.8479368  60.6541802 121.6165760
  36.2690376  60.7667432 120.1667879  52.8721245  66.1341071 108.6991643
  53.3972570  66.4728344 107.9740963  52.7843598  65.1988086 108.5154778
  44.5341294  70.0475145 120.8281520  44.8428421  69.8024291 121.7004219
  45.3316776  70.2521783 120.3400390  44.5561906  72.2013054 113.0586896
  44.1166896  71.7089433 113.7519753  45.3070023  71.6586022 112.8178971
  37.0354245  68.3924595 113.0611524  37.8612265  68.0928367 112.6810168
  36.6848297  67.6232218 113.5101313  42.0035778  67.7451063 115.1309198
  41.3815788  67.0821768 114.8311426  42.6740645  67.7712195 114.4482846
  35.2362850  66.3110922 114.0200458  34.3994759  65.8833096 113.8384459
  35.2086496  66.5043365 114.9571249  42.0760306  56.2232851 124.7241704
  42.1248461  57.0994974 124.3419474  42.6182820  55.6810244 124.1513347
  52.5615152  66.7673975 124.0042841  51.7710695  66.7498113 123.4647340
  52.3248506  67.3062268 124.7591878  52.6813027  63.6166441 121.3175570
  52.7311031  63.4516448 122.2591092  52.5726950  62.7493700 120.9273450
  41.5649285  66.2954987 108.6067658  41.7137406  66.9790451 107.9534331
  42.3715729  66.2760077 109.1217114  49.9716789  59.5997369 122.6334876
  50.8726652  59.4603834 122.3418874  50.0464763  59.7651824 123.5733054
  44.3059594  56.9764224 121.4788063  43.4362904  57.2697790 121.2070651
  44.5419075  57.5604669 122.1995326  54.1831223  66.0363383 121.5617591
  53.8916032  66.3993363 122.3981052  53.5703355  65.3230391 121.3830923
  55.3826906  63.6016262 114.0820161  56.2173797  64.0406066 114.2457722
  55.5186035  63.1254916 113.2628407  52.4318412  61.1595997 120.0297649
  52.9072533  61.3523643 119.2216500  51.5083977  61.2155183 119.7841033
  39.3201918  62.3220164 109.6128727  39.0747960  61.4182494 109.8108937
  39.4897833  62.3237315 108.6708205  47.0098628  53.1943841 118.9953483
  47.5280572  53.9304868 118.6699972  46.6553761  53.5007834 119.8300242
  38.5897566  58.0548522 107.1114889  37.8966811  58.1292877 106.4554925
  38.3449318  57.2908866 107.6336406  47.2611222  49.6144123 114.5154380
  47.5412976  48.9467312 115.1414806  48.0461829  49.8073219 114.0029043
  45.0644691  68.7903117 106.0779406  44.4918658  69.4093304 105.6249878
  45.6377484  69.3402479 106.6119328  51.1320081  58.0361757 118.2625955
  52.0837504  58.1359855 118.2838179  50.9623531  57.2440026 118.7724039
  49.1534460  55.1217340 118.4485356  48.5584392  55.4022353 117.7531844
  48.8684157  55.6111241 119.2202097  48.2841951  69.0740267 107.2087988
  49.2172624  69.0085829 107.4120864  48.1965163  69.9096534 106.7502521
  53.6108158  61.2567877 117.3768254  53.5784479  60.3183878 117.5627938
  54.2208782  61.3351914 116.6434079  53.7602647  58.0478920 117.4226538
  53.2441696  57.2637377 117.2356466  54.6442595  57.7197637 117.5873057
  51.4213374  51.7919936 113.3822350  51.2238195  51.4835024 114.2665682
  52.0313079  52.5181575 113.5120280  59.4284708  62.3183884 116.5174291
  60.1588097  62.0569172 117.0781994  58.8191654  61.5812606 116.5576359
  57.5100005  60.4591746 117.1148742  56.7833169  60.3247711 116.5065234
  57.0947292  60.7668575 117.9205460  45.3330182  64.1781676 124.8796115
  46.2533191  64.3560275 125.0736162  45.2979765  63.2337721 124.7275815
  34.5512347  59.3720270 113.8049390  34.2315131  58.5185578 113.5123764
  34.0045775  59.5868848 114.5607357  38.3292254  62.0882711 117.5218897
  38.5478264  63.0199819 117.5406930  38.7418028  61.7290685 118.3073700
  45.2496472  52.5950796 109.5094585  44.4397200  52.2497881 109.8849831
  45.9380889  52.2858340 110.0982196  47.1787020  51.6728843 111.1318882
  47.7318059  52.0924296 111.7908905  47.4157107  50.7464591 111.1741838
  34.4200607  62.9923181 115.7742512  33.7264078  62.5777134 115.2612466
  35.1673598  63.0343718 115.1775930  50.5565828  53.7829368 110.6397546
  49.9764497  54.4414172 110.2575598  50.2901760  52.9606713 110.2284963
  49.0069394  53.1834426 112.8418866  49.5069172  53.2950960 112.0333185
  49.6505002  52.8795479 113.4819675  43.0651390  61.0913055 125.7286707
  42.5818471  61.8913415 125.9350596  43.1512329  61.1021000 124.7754151
  36.3337349  62.9241435 113.6508526  36.3108037  63.0229122 112.6990410
  36.6437986  63.7706586 113.9725693  38.9924727  64.9817590 117.7655141
  39.9467981  64.9501532 117.6985072  38.7937251  64.5208214 118.5805367
  39.5824109  63.5518706 120.3325939  40.4016998  64.0462785 120.3560776
  39.8560917  62.6350674 120.3043506  49.3390706  55.9429458 109.6953894
  48.4516561  56.2279109 109.4774089  49.7544695  55.7823222 108.8481171
  52.6905242  55.9675979 113.4108233  53.4665632  56.4572432 113.6832850
  51.9653376  56.3934034 113.8680103  55.1277800  56.6803599 114.4682174
  55.7222291  56.4399335 113.7575482  55.2004384  55.9610729 115.0955710
  37.3474956  70.5237209 114.7825339  37.2129424  69.7637610 114.2163337
  36.9307018  71.2478109 114.3154128  49.3131729  61.4583994 109.9104184
  49.2566931  61.9152546 109.0711817  49.8660072  60.6974679 109.7327027
  53.1236535  57.2473726 110.7354304  52.8673469  56.8470362 111.5662511
  52.4989403  57.9617520 110.6104443  57.4348873  59.9869799 113.2425595
  56.8748431  60.0562989 114.0157157  56.8292376  59.8110784 112.5225091
  40.5044082  71.4206527 114.9943781  40.3876466  72.3651959 114.8922472
  39.6836528  71.1180088 115.3829581  50.3920616  66.1456662 105.8400374
  51.2266220  65.7137861 105.6577849  50.2304959  65.9738676 106.7677269
  50.0466509  62.6488776 107.2056713  49.9915312  62.4833047 106.2645157
  49.4212564  63.3564808 107.3618903  34.8359024  57.8856840 121.0318136
  35.4817887  57.3755794 121.5205361  34.6276175  58.6225522 121.6061561
  47.3612416  64.9537687 126.5310276  48.2303575  65.1278340 126.1696911
  46.8819167  65.7732104 126.4086006  43.3562634  52.1496885 106.7842032
  43.3441304  53.0938724 106.9410303  44.2486056  51.9667030 106.4901493
  41.5298596  72.0734788 118.2099710  42.4325843  72.1058399 118.5266205
  41.3035966  71.1435239 118.2246046  43.2852198  70.8265775 114.8709788
  42.3347829  70.8267637 114.7574161  43.5884684  70.0798510 114.3545823
  47.1714754  48.7439661 111.0387969  46.4047149  48.1898148 111.1844651
  47.5825458  48.8161530 111.9002120  59.0204892  76.6626313 115.9355551
  59.6583301  76.5433061 115.2318891  58.9025734  77.6107157 115.9943503
  55.8294598  76.6153741 115.8717076  55.4913109  76.4994806 114.9837610
  56.6984366  76.2144907 115.8518082  51.6881413  78.4689218 111.8613966
  51.1246279  78.3779155 111.0930254  51.5733809  77.6489122 112.3416459
  56.3114381  77.7688593 121.8303281  56.3003022  77.3741391 120.9583785
  56.4735020  77.0354666 122.4237052  49.2345845  79.9640409 114.6998187
  50.0267137  79.6231234 114.2844486  49.4742496  80.0735384 115.6200340
  57.2680972  82.1360186 107.1728431  56.6168952  82.7214266 106.7862445
  58.0625335  82.6666380 107.2323469  51.1936599  79.2249323 107.5715566
  51.9667475  78.6778310 107.4328442  51.5461998  80.0893572 107.7830027
  53.0321642  80.5525705 120.7782465  52.7411508  81.4571336 120.6629131
  53.6678626  80.5942233 121.4926535  53.9577849  77.9302553 117.3683825
  54.5541421  77.7058576 116.6540788  54.0152820  77.1887299 117.9709273
  53.5302877  75.3841989 105.2034016  53.7828398  74.8623510 104.4417479
  52.5927436  75.2208134 105.3060699  58.5746160  74.3877767 113.0108759
  59.3609249  73.9697190 112.6599176  58.8384864  75.2923859 113.1790407
  58.7456237  79.8250617 107.7097416  58.1102070  79.8985244 108.4218320
  58.4153644  80.4144216 107.0316495  63.9754587  74.3253000 113.9141737
  64.7079759  73.7552217 114.1479567  63.2193943  73.9374601 114.3548243
  53.2499166  77.2870095 107.4058391  53.1335424  76.6114998 108.0739475
  53.3601426  76.8002469 106.5890544  55.5930707  76.7480242 111.1105080
  55.2288914  76.2210863 111.8218001  56.4497823  76.3578711 110.9371565
  61.4980007  68.0374574 118.3736346  61.1663332  68.9069985 118.1497561
  60.9025621  67.7210858 119.0530376  55.2336194  71.7770142 106.1066428
  55.4010596  72.6450378 106.4736899  55.0433363  71.9397423 105.1827718
  57.9911527  80.2387120 117.7732259  57.6912250  81.1412159 117.6648066
  57.6462587  79.9719304 118.6253412  51.4424008  76.6900917 113.8068963
  50.5174505  76.5577131 114.0146655  51.6908422  77.4695137 114.3038906
  61.3908671  72.7569661 115.4529696  60.4825548  72.6885069 115.1588457
  61.3396267  73.2341606 116.2811522  55.2125415  74.2327799 107.0913095
  55.0925040  74.6784850 107.9298575  54.5178003  74.5813117 106.5326633
  48.8032820  76.3334191 114.6412752  48.9325201  76.5868670 115.5552164
  48.1230271  76.9261899 114.3217407  52.9732307  87.0031441 110.7403226
  52.8956337  87.9539266 110.8191707  52.3693950  86.6577313 111.3978153
  55.4649537  74.1759306 123.3964593  54.6882871  74.7353226 123.3867458
  56.1040100  74.6616089 123.9179463  63.2570317  70.9586099 117.2307570
  62.6144697  71.2518632 116.5847365  62.7525246  70.8439019 118.0360767
  60.9110481  74.7049272 107.9193429  61.8228337  74.9376659 107.7441127
  60.4020128  75.2886316 107.3568508  53.7195909  76.9844760 122.9582560
  54.4610593  77.5229804 122.6817384  53.0132894  77.6111048 123.1154112
  59.1951249  79.1273900 121.5554722  59.6034605  78.6856311 120.8109354
  58.4728510  78.5526528 121.8088915  55.5482319  74.0646507 118.9288279
  56.3943514  74.4885920 119.0722928  55.4880956  73.4080131 119.6226842
  59.5180063  79.6875091 115.3107011  58.8888926  79.8520805 114.6083079
  59.1305725  80.1016700 116.0817975  63.3969295  80.6229529 112.6651374
  62.7120333  81.0028430 112.1148408  63.4813144  81.2324855 113.3983322
  58.6981764  71.7250875 120.5869452  58.4542696  72.4792936 120.0503728
  58.9741694  72.1036223 121.4216699  60.6520227  78.2689488 119.2646718
  60.8637122  78.9121247 118.5881099  60.6049975  77.4351804 118.7968648
  58.2546456  70.8807308 116.1683290  57.3930935  71.1788562 116.4600028
  58.2808890  71.0977707 115.2364323  55.0708025  79.4249499 112.5757096
  55.5346371  79.7037202 111.7861718  54.8064823  78.5232943 112.3930186
  51.9632106  78.9720980 115.5136859  52.5333463  79.4008249 114.8754344
  52.5540218  78.6903565 116.2121045  54.0076911  75.5472651 109.3846661
  54.7100954  75.9993695 109.8520587  53.6757540  74.9056470 110.0126554
  52.4557273  74.1384408 123.7597870  51.8255933  74.8200689 123.9933267
  52.3493361  74.0267489 122.8151009  47.7502245  73.8056204 114.6863794
  46.9601299  74.0613732 114.2103905  48.2413492  74.6204542 114.7915835
  61.7666055  81.1461443 117.4369075  62.5883498  80.7441630 117.1551757
  61.7628457  81.0429677 118.3885191  49.7016990  74.1700783 111.6447271
  48.9048154  74.2819477 112.1630767  49.4742583  74.5087435 110.7788162
  55.5322658  80.6945486 119.5929786  55.5967091  81.1565894 120.4287958
  54.8233582  80.0642851 119.7212096  46.0339948  74.0586694 117.1178785
  46.2847986  74.9433704 117.3836361  46.5699496  73.8791296 116.3453877
  69.8572048  77.4900191 113.7854047  69.1035756  76.9207590 113.6298051
  69.9919589  77.4562856 114.7324681  55.2470676  82.3613594 109.4608766
  55.1116351  83.2065130 109.8893614  55.7880488  82.5632871 108.6974700
  51.7338015  68.4405174 126.1223121  51.3404961  67.8871372 126.7970766
  52.5504156  68.7515752 126.5129639  48.7000073  79.8789032 110.0336691
  49.2124594  80.6732282 110.1842256  49.3522786  79.1815322 109.9670293
  50.5094958  82.9954788 112.1159444  50.6861586  83.9172753 111.9280428
  51.3051791  82.6813207 112.5453824  54.6505976  69.8563053 123.7143378
  55.3915690  70.4570206 123.6347840  54.8823899  69.1140691 123.1561420
  49.7947314  75.0419420 121.9921608  49.6800829  74.1404677 122.2928707
  48.9391832  75.2883117 121.6406424  56.8739152  82.9837160 123.5909108
  56.4303006  82.1973539 123.2730013  57.5356366  83.1716311 122.9252999
  51.6326273  84.5132962 118.1169787  52.1833698  84.3850025 117.3446781
  50.7937749  84.8127851 117.7664680  58.9720390  83.2639960 121.6190509
  58.9538866  84.0848841 121.1270779  59.8940310  83.1394035 121.8440651
  55.4293444  80.7784090 122.4614018  55.9621781  80.0172378 122.2313326
  54.9007525  80.4857742 123.2038172  58.5963139  65.8844156 117.9907660
  58.2527409  66.7745797 117.9146770  58.9642102  65.6945813 117.1277245
  46.6648990  78.2077686 110.8096262  47.5024212  78.6174694 110.5929969
  46.8427258  77.2677128 110.7796456  58.5613422  75.8752767 106.4980095
  58.0460045  76.6457371 106.7368482  58.2890730  75.2017903 107.1213156
  56.1460533  70.7202468 111.5565333  55.2902129  70.3309318 111.3770972
  56.5587485  70.7994428 110.6965119  57.6759680  68.2548811 115.9556893
  57.1724475  68.2178946 115.1424698  57.9690287  69.1641554 116.0153550
  53.9202566  68.3387541 114.9623075  54.7855562  68.1430349 114.6028964
  53.9880074  68.1097892 115.8892431  63.5347696  78.6285121 108.4333268
  62.7577139  78.2896281 107.9888430  64.2139177  78.6337745 107.7588233
  58.3499725  73.7479859 108.3239876  58.0449861  74.0626008 109.1750019
  59.3030167  73.8261279 108.3667209  56.7946157  79.9070082 109.9732830
  56.2667519  79.1722842 109.6606067  56.2933660  80.6844759 109.7272798
  61.7739003  78.1019103 115.0899876  61.1162677  78.7918364 115.1780005
  62.5779402  78.4915535 115.4333863  51.5264885  70.5689748 112.3339441
  52.1008637  70.3464930 111.6012634  52.1135867  70.6378443 113.0868043
  60.5844462  76.4563475 113.1403818  61.0976344  77.0893467 113.6425528
  61.2345686  75.8564671 112.7747178  51.8534472  72.5994209 106.3535327
  51.0171784  72.9368896 106.6744601  51.7139241  72.4643189 105.4162464
  53.8287552  67.4430997 111.0614511  53.1751965  67.1280015 110.4371126
  53.7868026  66.8206738 111.7874334  54.9398757  77.7250292 102.9767803
  54.0325819  77.4939546 103.1758952  55.4369789  76.9287912 103.1641784
  57.8466836  86.4347800 105.8964489  57.1728535  86.7379496 106.5049447
  58.2332658  87.2376880 105.5469946  57.0625293  73.9312931 115.3862158
  56.1447854  74.1527878 115.2283847  57.4785436  74.0059241 114.5273866
  57.8460340  75.3304347 110.5164839  58.5932159  75.8425744 110.2071961
  58.1151930  75.0088399 111.3769232  56.1186991  77.8262887 107.4991793
  55.2098210  77.5421920 107.5964263  56.1482074  78.2461966 106.6395100
  61.3506258  81.4369477 111.2682961  60.8968585  80.5960387 111.3248151
  60.7200225  82.0730875 111.6057741  60.2939178  72.3661463 112.4983628
  59.5561934  71.8538849 112.8293871  60.5465951  71.9261844 111.6866905
  59.7939197  83.2745974 112.2032779  60.0862172  83.8351031 111.4845144
  60.3037818  83.5674535 112.9585938  60.3950805  65.1437715 113.0925397
  60.7009682  64.2835078 112.8051312  61.1203410  65.7355335 112.8924391
  46.6875161  75.5468401 111.4806995  46.4899561  74.9537762 110.7558062
  46.1321825  75.2420612 112.1982934  54.6671885  75.4391508 113.6001588
  54.7220494  74.4865344 113.5244065  53.8563087  75.5950947 114.0842887
  55.8163078  79.3671631 104.8379872  55.3782508  78.6507490 104.3785509
  56.5573519  79.5947746 104.2764963  52.6064245  74.0568568 111.3591967
  51.7932110  74.3562738 111.7657159  53.1023239  73.6624256 112.0766449
  54.7572822  84.0526325 113.2926232  54.7149001  84.2787171 112.3634764
  55.6735521  83.8189699 113.4412033  58.2038456  74.5210392 120.1906861
  58.5587844  74.7481865 121.0501327  58.8510588  74.8528769 119.5684116
  63.9336193  77.6428828 110.8956190  63.7954092  77.8330424 109.9677379
  63.5772412  78.4048211 111.3524241  52.0978319  71.6286923 116.9753202
  52.7377699  71.4875682 116.2776165  51.2655850  71.3421437 116.5991804
  63.9605573  79.7105355 115.9067462  64.3942080  79.6180644 116.7550516
  64.6737154  79.6862855 115.2687478  52.8738623  80.9289354 113.0888195
  53.6679222  80.4339674 112.8870770  52.1630316  80.4007217 112.7255900
  57.6933468  83.3107449 117.4400562  57.7470490  83.8798385 118.2078278
  56.8248249  83.4809334 117.0754599  49.1821387  75.0732435 109.1647947
  48.2518975  75.0116891 109.3817909  49.2778859  74.5508388 108.3684589
  49.1006936  71.5987248 111.7526189  49.3613753  72.5132581 111.6435349
  49.9224108  71.1311691 111.9022802  50.5731861  73.0125005 118.9225013
  51.2454915  72.8042367 118.2737662  49.7461648  72.8147091 118.4830246
  64.8221122  79.7529056 118.4400347  65.0157012  80.6574866 118.6859622
  64.7221741  79.2936475 119.2738932  56.4757433  69.6386946 120.9390674
  55.8285348  70.3376896 120.8455151  57.2458449  70.0723090 121.3066923
  59.8836231  79.9035798 124.0141228  59.7321737  79.6746350 123.0971311
  59.8740911  80.8606400 124.0272573  56.6521567  77.4767711 118.9987494
  57.5813627  77.6278871 118.8256461  56.2312598  77.5651732 118.1436141
  55.4509899  81.5018376 116.7686032  55.3120985  81.1337160 117.6411970
  54.6624495  82.0166015 116.5969990  56.0458051  86.6027472 108.1111568
  56.2209807  86.1315515 108.9257191  55.3590839  87.2293238 108.3392829
  57.0015114  80.8799978 114.1574869  56.6664947  80.8400748 115.0532519
  56.5019060  80.2144694 113.6845280  50.9759358  76.2867608 119.6827451
  50.8379156  75.5547847 120.2838990  51.8864282  76.1976508 119.4011638
  59.9374306  78.2256013 104.4311929  59.3203477  77.5002841 104.3344982
  59.4690795  78.9865373 104.0879003  53.6041659  75.9987568 119.1711130
  54.3141278  75.3580760 119.1297749  53.5610967  76.2500462 120.0937311
  61.5928438  82.9354921 122.0917710  61.5340984  82.2514141 121.4248293
  61.9947956  83.6773911 121.6398336  52.3170593  72.9852786 120.9906770
  51.7807950  72.5343524 121.6428366  51.7287301  73.1198694 120.2477234
  50.6119137  89.7516835 114.8851428  50.8515735  90.3835359 115.5630447
  49.7688333  89.4004875 115.1716788  61.5945845  80.8994505 120.3231689
  60.7072624  80.5620427 120.4458088  62.1644396  80.1677536 120.5600455
  43.2474992  77.2318597 113.6474741  43.9346032  76.9180327 113.0595756
  43.0923121  78.1359961 113.3741992  48.0509714  72.1208793 118.0759764
  47.9667903  71.5134463 117.3410174  47.2292421  72.6117812 118.0769261
  55.1246998  85.5595957 117.2892932  55.0517170  86.3650929 117.8012237
  54.6824391  85.7587923 116.4640954  54.9136778  84.7967727 110.7995754
  54.1304300  85.3389407 110.8933978  55.6129523  85.3141707 111.1989995
  58.2233428  70.6062357 113.4429959  58.7202128  69.8532319 113.1231030
  57.4520410  70.6426673 112.8773169  66.0763186  76.3102722 115.0848251
  66.0653062  77.1927438 114.7142184  65.2080565  75.9574273 114.8902788
  57.5845682  85.4582791 119.4451091  58.2973654  86.0930256 119.3726993
  57.0935711  85.5546657 118.6291093  59.3063209  79.3634044 111.0168383
  58.3719488  79.4835506 110.8473087  59.4839877  78.4606511 110.7528393
  54.8068397  72.7479740 113.1701644  54.4366184  72.1950780 113.8582550
  55.3027489  72.1437873 112.6176644  62.6935760  75.2051363 111.5518417
  63.1596212  76.0379355 111.4778720  63.1443261  74.7396345 112.2563675
  52.6357595  83.2077235 120.2656662  53.3367055  83.8413718 120.4186056
  52.1652710  83.5491966 119.5052301  60.7611991  81.5495185 108.5504569
  61.0371835  81.4351779 109.4598443  59.8916490  81.1512669 108.5116742
  60.6652423  67.5731950 115.5909318  59.7515503  67.8036177 115.7591525
  61.0945524  67.6570394 116.4423351  60.4358881  75.7621842 118.0909212
  59.7830332  76.0097750 117.4361665  60.8139261  74.9485980 117.7571690
  57.3966055  85.7981535 112.1937383  57.5788450  84.9803191 112.6565135
  58.2199041  86.0149228 111.7562273  57.7308221  84.7249721 109.4552431
  58.2595987  84.2142175 108.8422593  57.9936440  84.4092251 110.3197964
  56.4846454  76.5041653 124.5775249  55.8087091  76.4035783 125.2477625
  57.3074088  76.3480867 125.0411247  48.2325314  82.7413590 117.1987765
  48.8178750  81.9957278 117.3315669  48.0350152  83.0517547 118.0824428
  51.0863969  85.7764837 112.2150207  50.4174344  86.2610965 111.7314247
  50.9476838  86.0234058 113.1293585  42.8242968  75.3119190 115.9192208
  42.8627068  74.7782781 116.7129326  42.3183261  74.7854396 115.3003185
  55.2269237  87.8108581 118.8132865  55.7787545  87.9740202 119.5781951
  55.5675431  88.4013019 118.1412890  50.2033731  70.1583731 119.4154750
  50.2675057  71.0198561 119.0032148  50.1400851  69.5457732 118.6827109
  49.6786003  72.2306863 123.0627784  50.3058042  71.8483940 123.6765309
  48.8213922  72.0121065 123.4283477  46.4551546  74.0383292 108.9946139
  46.7504987  73.1293971 108.9413193  45.5539582  74.0171032 108.6727141
  58.3637625  85.7590556 115.7996547  58.2388764  84.9580296 115.2907493
  59.0216716  86.2536750 115.3110517  49.9845793  72.1139289 114.9773688
  49.2632379  72.7275256 114.8381161  50.7739049  72.6497054 114.8990334
  60.4272533  83.5599576 117.4276098  59.4802869  83.4404928 117.3554424
  60.7755306  82.6722074 117.5102359  52.7872106  69.4493715 121.2514339
  53.3106508  69.6956012 122.0140649  52.5684440  70.2813750 120.8317477
  48.1839387  71.7197390 109.1185464  47.8552094  70.8394769 108.9360570
  48.5378758  71.6645059 110.0061853  57.4318966  83.3552293 113.6280450
  57.2843929  82.4269000 113.8088020  58.2572460  83.3772383 113.1437525
  51.2981211  72.0070360 109.4860942  51.6377283  72.5356281 108.7639550
  51.7453331  72.3450766 110.2619508  61.0353088  84.1780851 114.7145323
  61.9599636  83.9723713 114.5769774  60.8668391  83.9297252 115.6234664
  53.9924651  70.3907410 118.9364010  53.6521472  69.5915223 119.3384690
  53.2863658  70.6909121 118.3640843  54.6441123  67.4756723 117.3891333
  55.4667193  67.0017201 117.2670223  54.8879187  68.2547207 117.8890019
  53.2849358  70.5044981 107.6854235  54.0057720  70.8826234 107.1817952
  52.6614662  71.2233858 107.7889213  57.4280481  71.2090130 108.6212567
  57.6444095  72.0914768 108.3201395  56.9474548  70.8176344 107.8918209
  52.1679702  74.1675843 115.1983312  52.0224283  74.4816146 116.0907593
  51.6904906  74.7860744 114.6454210  54.0276085  71.1578391 115.2464201
  54.0137654  70.2619485 114.9096499  54.7448513  71.1649055 115.8802487
  55.8802216  71.5915732 117.2917329  55.6219993  72.5132802 117.2901659
  55.3487256  71.1946166 117.9817793  60.8248404  84.6966519 110.0707414
  60.9985282  84.1312941 109.3181266  61.3177296  85.4967414 109.8886904
  46.6425364  76.7081188 118.1370973  46.0978832  77.4840996 118.2691247
  47.5204714  77.0551992 117.9790094  53.4312981  70.0392772 110.5151771
  53.5528892  69.1109418 110.7142659  53.1415023  70.0531458 109.6030087
  56.3004171  67.7247682 113.6518491  56.3225868  67.7887015 112.6970471
  56.7172230  66.8852191 113.8458997  66.6787795  77.4602942 111.6897714
  67.1218942  76.7110267 111.2916837  65.8014306  77.4513078 111.3071446
  61.8123577  84.0133283 107.1704312  62.5074481  84.6339976 107.3891627
  62.1546727  83.1628634 107.4456690  47.4291386  75.8351084 121.0301130
  46.6873122  75.9833719 121.6165760  47.1084130  76.0959350 120.1667879
  63.7115000  81.4632989 108.6991643  64.2366324  81.8020261 107.9740963
  63.6237352  80.5280004 108.5154778  55.3735049  85.3767062 120.8281520
  55.6822175  85.1316209 121.7004219  56.1710531  85.5813701 120.3400390
  55.3955661  87.5304972 113.0586896  54.9560651  87.0381351 113.7519753
  56.1463778  86.9877940 112.8178971  47.8748000  83.7216513 113.0611524
  48.7006020  83.4220285 112.6810168  47.5242052  82.9524135 113.5101313
  52.8429533  83.0742981 115.1309198  52.2209542  82.4113686 114.8311426
  53.5134400  83.1004113 114.4482846  46.0756605  81.6402839 114.0200458
  45.2388513  81.2125014 113.8384459  46.0480250  81.8335283 114.9571249
  52.9154060  71.5524769 124.7241704  52.9642216  72.4286892 124.3419474
  53.4576575  71.0102162 124.1513347  63.5206781  78.9458359 121.3175570
  63.5704786  78.7808366 122.2591092  63.4120704  78.0785618 120.9273450
  60.8110543  74.9289287 122.6334876  61.7120406  74.7895752 122.3418874
  60.8858518  75.0943742 123.5733054  55.1453349  72.3056141 121.4788063
  54.2756658  72.5989708 121.2070651  55.3812829  72.8896586 122.1995326
  65.0224978  81.3655300 121.5617591  64.7309786  81.7285281 122.3981052
  64.4097109  80.6522308 121.3830923  66.2220660  78.9308180 114.0820161
  67.0567552  79.3697984 114.2457722  66.3579789  78.4546833 113.2628407
  63.2712166  76.4887915 120.0297649  63.7466288  76.6815561 119.2216500
  62.3477731  76.5447101 119.7841033  50.1595673  77.6512082 109.6128727
  49.9141715  76.7474412 109.8108937  50.3291587  77.6529232 108.6708205
  57.8492383  68.5235758 118.9953483  58.3674326  69.2596785 118.6699972
  57.4947515  68.8299752 119.8300242  49.4291320  73.3840440 107.1114889
  48.7360565  73.4584795 106.4554925  49.1843072  72.6200783 107.6336406
  58.1004977  64.9436041 114.5154380  58.3806731  64.2759230 115.1414806
  58.8855584  65.1365137 114.0029043  55.9038445  84.1195035 106.0779406
  55.3312412  84.7385222 105.6249878  56.4771239  84.6694397 106.6119328
  61.9713835  73.3653675 118.2625955  62.9231258  73.4651773 118.2838179
  61.8017286  72.5731943 118.7724039  59.9928215  70.4509258 118.4485356
  59.3978147  70.7314271 117.7531844  59.7077911  70.9403159 119.2202097
  59.1235705  84.4032185 107.2087988  60.0566378  84.3377747 107.4120864
  59.0358918  85.2388452 106.7502521  61.7523722  83.7198055 104.1691936
  61.6737353  83.3857919 105.0627694  62.5733389  84.2119823 104.1683408
  64.4501913  76.5859795 117.3768254  64.4178233  75.6475795 117.5627938
  65.0602537  76.6643831 116.6434079  56.2885244  75.4555848 103.4195458
  57.2344348  75.3262056 103.4883876  55.9099489  74.7170509 103.8964887
  64.5996401  73.3770838 117.4226538  64.0835450  72.5929295 117.2356466
  65.4836350  73.0489555 117.5873057  62.2607128  67.1211854 113.3822350
  62.0631949  66.8126942 114.2665682  62.8706834  67.8473493 113.5120280
  70.2678463  77.6475801 116.5174291  70.9981851  77.3861090 117.0781994
  69.6585408  76.9104523 116.5576359  68.3493760  75.7883664 117.1148742
  67.6226923  75.6539629 116.5065234  67.9341047  76.0960493 117.9205460
  56.1723936  79.5073594 124.8796115  57.0926946  79.6852193 125.0736162
  56.1373519  78.5629639 124.7275815  54.4728161  73.3805824 103.3550344
  53.5659616  73.0838937 103.4313057  54.7504142  73.0835642 102.4884630
  45.3906101  74.7012187 113.8049390  45.0708886  73.8477496 113.5123764
  44.8439529  74.9160766 114.5607357  49.1686009  77.4174628 117.5218897
  49.3872019  78.3491736 117.5406930  49.5811783  77.0582603 118.3073700
  56.0890227  67.9242714 109.5094585  55.2790955  67.5789799 109.8849831
  56.7774644  67.6150257 110.0982196  58.0180775  67.0020760 111.1318882
  58.5711814  67.4216214 111.7908905  58.2550861  66.0756509 111.1741838
  54.0413874  72.9907834 126.9121645  53.9410601  73.9402191 126.8433737
  53.8235416  72.6626073 126.0397716  45.2594361  78.3215099 115.7742512
  44.5657833  77.9069052 115.2612466  46.0067352  78.3635635 115.1775930
  61.3959582  69.1121286 110.6397546  60.8158251  69.7706090 110.2575598
  61.1295515  68.2898630 110.2284963  59.8463148  68.5126343 112.8418866
  60.3462927  68.6242878 112.0333185  60.4898756  68.2087396 113.4819675
  53.9045144  76.4204973 125.7286707  53.4212226  77.2205333 125.9350596
  53.9906083  76.4312918 124.7754151  47.1731104  78.2533353 113.6508526
  47.1501792  78.3521040 112.6990410  47.4831740  79.0998503 113.9725693
  49.8318482  80.3109508 117.7655141  50.7861735  80.2793450 117.6985072
  49.6331005  79.8500131 118.5805367  50.4217864  78.8810624 120.3325939
  51.2410753  79.3754702 120.3560776  50.6954672  77.9642592 120.3043506
  60.1784460  71.2721376 109.6953894  59.2910315  71.5571027 109.4774089
  60.5938449  71.1115139 108.8481171  63.5298996  71.2967897 113.4108233
  64.3059386  71.7864349 113.6832850  62.8047130  71.7225951 113.8680103
  65.9671555  72.0095516 114.4682174  66.5616046  71.7691252 113.7575482
  66.0398139  71.2902647 115.0955710  48.1868711  85.8529127 114.7825339
  48.0523178  85.0929528 114.2163337  47.7700773  86.5770027 114.3154128
  59.3227674  81.0366051 103.7901914  60.0263524  81.2416053 104.4059570
  58.5990322  81.6042813 104.0550998  60.1525484  76.7875912 109.9104184
  60.0960685  77.2444463 109.0711817  60.7053826  76.0266597 109.7327027
  63.9630290  72.5765644 110.7354304  63.7067224  72.1762279 111.5662511
  63.3383158  73.2909438 110.6104443  68.2742628  75.3161717 113.2425595
  67.7142186  75.3854906 114.0157157  67.6686131  75.1402702 112.5225091
  51.3437836  86.7498444 114.9943781  51.2270221  87.6943877 114.8922472
  50.5230283  86.4472006 115.3829581  61.2314371  81.4748580 105.8400374
  62.0659975  81.0429778 105.6577849  61.0698714  81.3030594 106.7677269
  60.8860263  77.9780693 107.2056713  60.8309067  77.8124965 106.2645157
  60.2606318  78.6856726 107.3618903  45.6752778  73.2148758 121.0318136
  46.3211642  72.7047712 121.5205361  45.4669929  73.9517439 121.6061561
  54.1956389  67.4788802 106.7842032  54.1835058  68.4230642 106.9410303
  55.0879810  67.2958948 106.4901493  52.3692351  87.4026706 118.2099710
  53.2719597  87.4350316 118.5266205  52.1429721  86.4727157 118.2246046
  54.1245953  86.1557693 114.8709788  53.1741584  86.1559554 114.7574161
  54.4278439  85.4090427 114.3545823  58.0108508  64.0731579 111.0387969
  57.2440904  63.5190066 111.1844651  58.4219213  64.1453448 111.9002120
  50.0150269  70.3616375 125.1293150  50.8781731  70.0053180 125.3396474
  49.4415680  70.0230269 125.8168554  66.6688352  91.9445659 115.8717076
  66.3306864  91.8286724 114.9837610  67.5378120  91.5436824 115.8518082
  62.5275168  93.7981136 111.8613966  61.9640033  93.7071072 111.0930254
  62.4127563  92.9781040 112.3416459  60.0739600  95.2932327 114.6998187
  60.8660892  94.9523152 114.2844486  60.3136250  95.4027302 115.6200340
  68.1074727  97.4652103 107.1728431  67.4562706  98.0506184 106.7862445
  68.9019090  97.9958298 107.2323469  62.0330354  94.5541240 107.5715566
  62.8061230  94.0070227 107.4328442  62.3855753  95.4185490 107.7830027
  64.3696632  90.7133906 105.2034016  64.6222152  90.1915428 104.4417479
  63.4321191  90.5500052 105.3060699  69.4139914  89.7169685 113.0108759
  70.2003004  89.2989108 112.6599176  69.6778619  90.6215777 113.1790407
  69.5849992  95.1542535 107.7097416  68.9495825  95.2277162 108.4218320
  69.2547398  95.7436134 107.0316495  74.8148342  89.6544918 113.9141737
  75.5473514  89.0844135 114.1479567  74.0587697  89.2666519 114.3548243
  64.0892920  92.6162012 107.4058391  63.9729179  91.9406916 108.0739475
  64.1995180  92.1294386 106.5890544  66.4324461  92.0772160 111.1105080
  66.0682669  91.5502781 111.8218001  67.2891577  91.6870629 110.9371565
  72.3373762  83.3666492 118.3736346  72.0057087  84.2361903 118.1497561
  71.7419375  83.0502776 119.0530376  66.0729948  87.1062059 106.1066428
  66.2404351  87.9742296 106.4736899  65.8827117  87.2689341 105.1827718
  62.2817763  92.0192835 113.8068963  61.3568259  91.8869049 114.0146655
  62.5302176  92.7987054 114.3038906  66.0519169  89.5619717 107.0913095
  65.9318794  90.0076768 107.9298575  65.3571758  89.9105034 106.5326633
  59.6426574  91.6626109 114.6412752  59.7718955  91.9160587 115.5552164
  58.9624025  92.2553817 114.3217407  63.8126061 102.3323359 110.7403226
  63.7350091 103.2831184 110.8191707  63.2087705 101.9869231 111.3978153
  71.7504235  90.0341190 107.9193429  72.6622091  90.2668577 107.7441127
  71.2413882  90.6178234 107.3568508  69.0940210  86.2099226 116.1683290
  68.2324689  86.5080479 116.4600028  69.1202645  86.4269625 115.2364323
  65.9101780  94.7541416 112.5757096  66.3740125  95.0329119 111.7861718
  65.6458578  93.8524861 112.3930186  62.8025861  94.3012898 115.5136859
  63.3727218  94.7300166 114.8754344  63.3933972  94.0195483 116.2121045
  64.8470666  90.8764569 109.3846661  65.5494709  91.3285613 109.8520587
  64.5151294  90.2348388 110.0126554  58.5896000  89.1348121 114.6863794
  57.7995054  89.3905650 114.2103905  59.0807247  89.9496459 114.7915835
  60.5410745  89.4992701 111.6447271  59.7441908  89.6111395 112.1630767
  60.3136337  89.8379353 110.7788162  56.8733703  89.3878612 117.1178785
  57.1241741  90.2725622 117.3836361  57.4093251  89.2083213 116.3453877
  66.0864430  97.6905511 109.4608766  65.9510105  98.5357047 109.8893614
  66.6274243  97.8924789 108.6974700  59.5393828  95.2080949 110.0336691
  60.0518348  96.0024200 110.1842256  60.1916540  94.5107240 109.9670293
  61.3488712  98.3246706 112.1159444  61.5255341  99.2464670 111.9280428
  62.1445546  98.0105125 112.5453824  69.4356894  81.2136073 117.9907660
  69.0921163  82.1037715 117.9146770  69.8035856  81.0237731 117.1277245
  57.5042744  93.5369604 110.8096262  58.3417966  93.9466612 110.5929969
  57.6821012  92.5969046 110.7796456  69.4007177  91.2044684 106.4980095
  68.8853800  91.9749289 106.7368482  69.1284485  90.5309821 107.1213156
  66.9854288  86.0494385 111.5565333  66.1295884  85.6601236 111.3770972
  67.3981239  86.1286346 110.6965119  68.5153434  83.5840728 115.9556893
  68.0118230  83.5470864 115.1424698  68.8084041  84.4933471 116.0153550
  64.7596320  83.6679458 114.9623075  65.6249317  83.4722267 114.6028964
  64.8273829  83.4389810 115.8892431  74.3741451  93.9577039 108.4333268
  73.5970893  93.6188199 107.9888430  75.0532932  93.9629662 107.7588233
  69.1893480  89.0771777 108.3239876  68.8843615  89.3917926 109.1750019
  70.1423922  89.1553196 108.3667209  67.6339912  95.2362000 109.9732830
  67.1061273  94.5014759 109.6606067  67.1327414  96.0136676 109.7272798
  62.3658639  85.8981666 112.3339441  62.9402391  85.6756848 111.6012634
  62.9529622  85.9670361 113.0868043  71.4238216  91.7855393 113.1403818
  71.9370098  92.4185385 113.6425528  72.0739440  91.1856589 112.7747178
  62.6928226  87.9286127 106.3535327  61.8565539  88.2660814 106.6744601
  62.5532996  87.7935107 105.4162464  64.6681307  82.7722915 111.0614511
  64.0145719  82.4571932 110.4371126  64.6261781  82.1498656 111.7874334
  65.7792512  93.0542210 102.9767803  64.8719573  92.8231464 103.1758952
  66.2763544  92.2579829 103.1641784  68.6860591 101.7639717 105.8964489
  68.0122289 102.0671414 106.5049447  69.0726413 102.5668798 105.5469946
  67.9019047  89.2604849 115.3862158  66.9841609  89.4819796 115.2283847
  68.3179191  89.3351159 114.5273866  68.6854095  90.6596264 110.5164839
  69.4325914  91.1717661 110.2071961  68.9545685  90.3380317 111.3769232
  66.9580745  93.1554805 107.4991793  66.0491964  92.8713838 107.5964263
  66.9875829  93.5753884 106.6395100  71.1332932  87.6953381 112.4983628
  70.3955689  87.1830767 112.8293871  71.3859706  87.2553762 111.6866905
  71.2344559  80.4729633 113.0925397  71.5403436  79.6126996 112.8051312
  71.9597164  81.0647253 112.8924391  57.5268916  90.8760319 111.4806995
  57.3293315  90.2829680 110.7558062  56.9715580  90.5712529 112.1982934
  65.5065639  90.7683426 113.6001588  65.5614249  89.8157262 113.5244065
  64.6956841  90.9242865 114.0842887  66.6556833  94.6963549 104.8379872
  66.2176263  93.9799408 104.3785509  67.3967274  94.9239663 104.2764963
  63.4457999  89.3860485 111.3591967  62.6325865  89.6854656 111.7657159
  63.9416993  88.9916174 112.0766449  74.7729948  92.9720746 110.8956190
  74.6347846  93.1622342 109.9677379  74.4166167  93.7340129 111.3524241
  62.9372074  86.9578841 116.9753202  63.5771453  86.8167600 116.2776165
  62.1049604  86.6713354 116.5991804  63.7132378  96.2581271 113.0888195
  64.5072976  95.7631591 112.8870770  63.0024070  95.7299134 112.7255900
  60.0215141  90.4024353 109.1647947  59.0912729  90.3408809 109.3817909
  60.1172613  89.8800306 108.3684589  59.9400690  86.9279166 111.7526189
  60.2007508  87.8424499 111.6435349  60.7617863  86.4603608 111.9022802
  61.4125616  88.3416923 118.9225013  62.0848669  88.1334285 118.2737662
  60.5855402  88.1439009 118.4830246  66.8851806 101.9319390 108.1111568
  67.0603561 101.4607433 108.9257191  66.1984594 102.5585156 108.3392829
  70.7768061  93.5547930 104.4311929  70.1597231  92.8294758 104.3344982
  70.3084549  94.3157291 104.0879003  62.5666606  87.7733355 103.5533233
  61.6896073  87.6522155 103.1895480  63.0424360  86.9819433 103.3012122
  54.0868747  92.5610514 113.6474741  54.7739786  92.2472244 113.0595756
  53.9316875  93.4651879 113.3741992  58.8903469  87.4500711 118.0759764
  58.8061657  86.8426380 117.3410174  58.0686175  87.9409729 118.0769261
  65.7530532 100.1259645 110.7995754  64.9698054 100.6681325 110.8933978
  66.4523278 100.6433625 111.1989995  69.0627183  85.9354274 113.4429959
  69.5595882  85.1824237 113.1231030  68.2914164  85.9718591 112.8773169
  70.1456963  94.6925962 111.0168383  69.2113242  94.8127424 110.8473087
  70.3233632  93.7898428 110.7528393  65.6462151  88.0771657 113.1701644
  65.2759939  87.5242698 113.8582550  66.1421244  87.4729791 112.6176644
  73.5329515  90.5343281 111.5518417  73.9989967  91.3671273 111.4778720
  73.9837015  90.0688263 112.2563675  71.6005746  96.8787102 108.5504569
  71.8765590  96.7643697 109.4598443  70.7310245  96.4804587 108.5116742
  71.5046177  82.9023868 115.5909318  70.5909257  83.1328095 115.7591525
  71.9339279  82.9862312 116.4423351  68.5701975 100.0541638 109.4552431
  69.0989742  99.5434093 108.8422593  68.8330195  99.7384168 110.3197964
  53.6636723  90.6411108 115.9192208  53.7020822  90.1074698 116.7129326
  53.1577016  90.1146313 115.3003185  61.0427485  85.4875648 119.4154750
  61.1068812  86.3490479 119.0032148  60.9794605  84.8749650 118.6827109
  57.2945300  89.3675210 108.9946139  57.5898741  88.4585888 108.9413193
  56.3933336  89.3462949 108.6727141  60.8239547  87.4431206 114.9773688
  60.1026133  88.0567174 114.8381161  61.6132803  87.9788971 114.8990334
  59.0233142  87.0489308 109.1185464  58.6945848  86.1686686 108.9360570
  59.3772513  86.9936976 110.0061853  62.1374965  87.3362277 109.4860942
  62.4771038  87.8648199 108.7639550  62.5847086  87.6742683 110.2619508
  64.8318406  85.7199328 118.9364010  64.4915226  84.9207141 119.3384690
  64.1257412  86.0201039 118.3640843  65.4834878  82.8048640 117.3891333
  66.3060947  82.3309119 117.2670223  65.7272941  83.5839124 117.8890019
  64.1243112  85.8336899 107.6854235  64.8451475  86.2118152 107.1817952
  63.5008416  86.5525776 107.7889213  68.2674235  86.5382048 108.6212567
  68.4837849  87.4206686 108.3201395  67.7868302  86.1468261 107.8918209
  63.0073456  89.4967761 115.1983312  62.8618037  89.8108064 116.0907593
  62.5298660  90.1152661 114.6454210  64.8669839  86.4870309 115.2464201
  64.8531408  85.5911402 114.9096499  65.5842267  86.4940973 115.8802487
  66.7195970  86.9207649 117.2917329  66.4613748  87.8424720 117.2901659
  66.1881010  86.5238084 117.9817793  57.4819119  92.0373105 118.1370973
  56.9372587  92.8132913 118.2691247  58.3598468  92.3843910 117.9790094
  64.2706735  85.3684689 110.5151771  64.3922646  84.4401336 110.7142659
  63.9808778  85.3823375 109.6030087  67.1397926  83.0539600 113.6518491
  67.1619622  83.1178933 112.6970471  67.5565985  82.2144108 113.8458997
  72.6517331  99.3425201 107.1704312  73.3468236  99.9631893 107.3891627
  72.9940481  98.4920552 107.4456690  74.5508754  96.7924906 108.6991643
  75.0760079  97.1312179 107.9740963  74.4631107  95.8571922 108.5154778
  58.7141754  99.0508430 113.0611524  59.5399774  98.7512202 112.6810168
  58.3635806  98.2816053 113.5101313  56.9150359  96.9694757 114.0200458
  56.0782268  96.5416931 113.8384459  56.8874005  97.1627200 114.9571249
  63.2436794  96.9538822 108.6067658  63.3924915  97.6374286 107.9534331
  64.0503238  96.9343912 109.1217114  60.9989427  92.9804000 109.6128727
  60.7535469  92.0766330 109.8108937  61.1685342  92.9821150 108.6708205
  68.6886137  83.8527676 118.9953483  69.2068081  84.5888703 118.6699972
  68.3341270  84.1591669 119.8300242  60.2685075  88.7132357 107.1114889
  59.5754320  88.7876712 106.4554925  60.0236827  87.9492701 107.6336406
  68.9398731  80.2727959 114.5154380  69.2200485  79.6051148 115.1414806
  69.7249338  80.4657054 114.0029043  66.7432200  99.4486952 106.0779406
  66.1706167 100.0677140 105.6249878  67.3164993  99.9986314 106.6119328
  69.9629460  99.7324103 107.2087988  70.8960133  99.6669664 107.4120864
  69.8752672 100.5680369 106.7502521  72.5917476  99.0489973 104.1691936
  72.5131108  98.7149837 105.0627694  73.4127143  99.5411741 104.1683408
  67.1278998  90.7847765 103.4195458  68.0738103  90.6553973 103.4883876
  66.7493243  90.0462427 103.8964887  73.1000883  82.4503771 113.3822350
  72.9025704  82.1418859 114.2665682  73.7100588  83.1765410 113.5120280
  65.3121915  88.7097742 103.3550344  64.4053371  88.4130854 103.4313057
  65.5897896  88.4127560 102.4884630  56.2299856  90.0304105 113.8049390
  55.9102640  89.1769413 113.5123764  55.6833284  90.2452683 114.5607357
  60.0079763  92.7466546 117.5218897  60.2265773  93.6783654 117.5406930
  60.4205537  92.3874520 118.3073700  66.9283981  83.2534631 109.5094585
  66.1184709  82.9081716 109.8849831  67.6168398  82.9442175 110.0982196
  68.8574529  82.3312678 111.1318882  69.4105568  82.7508132 111.7908905
  69.0944616  81.4048426 111.1741838  64.0820700  85.5684677 103.4962323
  64.9439864  85.8939575 103.7558140  64.2671044  84.7816173 102.9835389
  56.0988116  93.6507017 115.7742512  55.4051587  93.2360969 115.2612466
  56.8461107  93.6927553 115.1775930  72.2353337  84.4413203 110.6397546
  71.6552006  85.0998007 110.2575598  71.9689269  83.6190548 110.2284963
  70.6856903  83.8418261 112.8418866  71.1856681  83.9534796 112.0333185
  71.3292511  83.5379314 113.4819675  58.0124858  93.5825270 113.6508526
  57.9895546  93.6812958 112.6990410  58.3225495  94.4290421 113.9725693
  71.0178215  86.6013294 109.6953894  70.1304070  86.8862944 109.4774089
  71.4332204  86.4407057 108.8481171  74.3692751  86.6259815 113.4108233
  75.1453141  87.1156267 113.6832850  73.6440885  87.0517869 113.8680103
  76.8065309  87.3387434 114.4682174  77.4009800  87.0983170 113.7575482
  76.8791893  86.6194564 115.0955710  70.1621428  96.3657968 103.7901914
  70.8657278  96.5707971 104.4059570  69.4384077  96.9334730 104.0550998
  70.9919238  92.1167830 109.9104184  70.9354440  92.5736381 109.0711817
  71.5447581  91.3558514 109.7327027  74.8024044  87.9057561 110.7354304
  74.5460978  87.5054197 111.5662511  74.1776912  88.6201355 110.6104443
  72.0708125  96.8040498 105.8400374  72.9053729  96.3721696 105.6577849
  71.9092468  96.6322511 106.7677269  71.7254018  93.3072611 107.2056713
  71.6702821  93.1416882 106.2645157  71.1000073  94.0148644 107.3618903
  56.5146533  88.5440675 121.0318136  57.1605396  88.0339629 121.5205361
  56.3063684  89.2809357 121.6061561  65.0350143  82.8080720 106.7842032
  65.0228813  83.7522560 106.9410303  65.9273565  82.6250865 106.4901493
  68.8502263  79.4023497 111.0387969  68.0834658  78.8481983 111.1844651
  69.2612967  79.4745365 111.9002120  73.5321981 103.2578045 106.3535327
  72.6959293 103.5952731 106.6744601  73.3926750 103.1227025 105.4162464
  73.4060361 103.1025272 103.5533233  72.5289827 102.9814073 103.1895480
  73.8818114 102.3111351 103.3012122  71.1078829 104.0424275 107.1114889
  70.4148074 104.1168630 106.4554925  70.8630581 103.2784619 107.6336406
  76.1515670 104.0389659 103.3550344  75.2447125 103.7422772 103.4313057
  76.4291651 103.7419477 102.4884630  74.9214455 100.8976595 103.4962323
  75.7833619 101.2231493 103.7558140  75.1064799 100.1108090 102.9835389
  75.8743898  98.1372638 106.7842032  75.8622567  99.0814477 106.9410303
  76.7667319  97.9542783 106.4901493  25.3285574  17.4534169  92.6209796
  24.6547273  17.7565866  93.2294754  25.7151396  18.2563250  92.2715253
  27.4193044   9.2442382  91.1557236  26.8022214   8.5189210  91.0590288
  26.9509532  10.0051742  90.8124310  29.2942315  15.0319653  93.8949619
  29.9893219  15.6526345  94.1136934  29.6365465  14.1815004  94.1701997
  23.3857183  15.1381404  92.8024712  22.8131150  15.7571592  92.3495184
  23.9589977  15.6880766  93.3364634  26.6054443  15.4218555  93.9333295
  27.5385116  15.3564116  94.1366170  26.5177656  16.2574821  93.4747827
  29.2342460  14.7384425  90.8937242  29.1556091  14.4044288  91.7873000
  30.0552126  15.2306193  90.8928715  26.8046411  12.0552420  90.5147221
  27.5082261  12.2602423  91.1304876  26.0809060  12.6229182  90.7796304
  28.7133109  12.4934949  92.5645681  29.5478713  12.0616148  92.3823156
  28.5517452  12.3216963  93.4922575  37.3417384  23.0104601 102.6600857
  37.9795794  22.8911348 101.9564198  37.2238227  23.9585445 102.7188810
  34.1507090  22.9632029 102.5962382  33.8125602  22.8473093 101.7082917
  35.0196858  22.5623194 102.5763388  30.0093906  24.8167505  98.5859273
  29.4458771  24.7257442  97.8175561  29.8946301  23.9967410  99.0661766
  35.5893464  28.4838473  93.8973738  34.9381444  29.0692553  93.5107752
  36.3837827  29.0144668  93.9568775  29.5149092  25.5727610  94.2960872
  30.2879968  25.0256597  94.1573748  29.8674491  26.4371859  94.5075334
  31.8515369  21.7320276  91.9279322  32.1040890  21.2101797  91.1662785
  30.9139929  21.5686422  92.0306006  36.8958652  20.7356054  99.7354065
  37.6821742  20.3175478  99.3844483  37.1597357  21.6402147  99.9035714
  37.0668730  26.1728905  94.4342722  36.4314563  26.2463531  95.1463627
  36.7366136  26.7622504  93.7561802  42.2967079  20.6731288 100.6387044
  43.0292251  20.1030504 100.8724873  41.5406435  20.2852888 101.0793550
  31.5711658  23.6348382  94.1303697  31.4547916  22.9593285  94.7984782
  31.6813918  23.1480756  93.3135850  33.9143199  23.0958529  97.8350386
  33.5501406  22.5689150  98.5463308  34.7710315  22.7056998  97.6616872
  33.5548686  18.1248429  92.8311735  33.7223088  18.9928665  93.1982206
  33.3645855  18.2875711  91.9073024  36.3124019  26.5865408 104.4977565
  36.0124742  27.4890447 104.3893373  35.9675079  26.3197591 105.3498718
  39.7121163  19.1047948 102.1775003  38.8038040  19.0363356 101.8833764
  39.6608759  19.5819893 103.0056828  33.5337907  20.5806086  93.8158402
  33.4137532  21.0263137  94.6543882  32.8390495  20.9291404  93.2571940
  31.2944799  33.3509728  97.4648533  31.2168829  34.3017553  97.5437014
  30.6906443  33.0055601  98.1223459  39.2322973  21.0527559  94.6438736
  40.1440829  21.2854946  94.4686433  38.7232620  21.6364604  94.0813814
  37.8392555  26.0353378 102.0352317  37.2101418  26.1999092 101.3328385
  37.4518218  26.4494988 102.8063281  41.7181787  26.9707816  99.3896681
  41.0332826  27.3506717  98.8393714  41.8025637  27.5803142 100.1228629
  33.3920517  25.7727786  99.3002402  33.8558863  26.0515489  98.5107025
  33.1277315  24.8711231  99.1175493  32.3289403  21.8950938  96.1091968
  33.0313447  22.3471982  96.5765894  31.9970032  21.2534757  96.7371861
  40.0878547  27.4939730 104.1614382  40.9095991  27.0919918 103.8797064
  40.0840950  27.3907964 105.1130498  48.1784540  23.8378479 100.5099353
  47.4248248  23.2685877 100.3543358  48.3132081  23.8041143 101.4569988
  33.5683168  28.7091881  96.1854073  33.4328843  29.5543417  96.6138921
  34.1092981  28.9111159  95.4220007  27.0212565  26.2267319  96.7581998
  27.5337086  27.0210569  96.9087563  27.6735278  25.5293610  96.6915599
  28.8307450  29.3433075  98.8404751  29.0074078  30.2651040  98.6525735
  29.6264284  29.0291495  99.2699131  29.9538766  30.8611249 104.8415093
  30.5046191  30.7328312 104.0692087  29.1150241  31.1606138 104.4909986
  24.9861482  24.5555973  97.5341568  25.8236704  24.9652982  97.3175276
  25.1639750  23.6155416  97.5041762  36.8825914  22.2231054  93.2225401
  36.3672538  22.9935659  93.4613789  36.6103223  21.5496190  93.8458463
  34.4673025  17.0680755  98.2810640  33.6114622  16.6787605  98.1016278
  34.8799977  17.1472716  97.4210425  41.8560188  24.9763409  95.1578575
  41.0789631  24.6374568  94.7133737  42.5351669  24.9816032  94.4833540
  36.6712217  20.0958146  95.0485183  36.3662353  20.4104295  95.8995326
  37.6242660  20.1739566  95.0912516  35.1158649  26.2548369  96.6978136
  34.5880011  25.5201129  96.3851374  34.6146152  27.0323046  96.4518105
  40.0951495  24.4497390 101.8145183  39.4375170  25.1396651 101.9025311
  40.8991895  24.8393822 102.1579169  38.9056954  22.8041763  99.8649125
  39.4188836  23.4371754 100.3670834  39.5558178  22.2042958  99.4992485
  30.1746964  18.9472497  93.0780633  29.3384276  19.2847183  93.3989908
  30.0351734  18.8121477  92.1407770  33.2611249  24.0728580  89.7013110
  32.3538311  23.8417833  89.9004259  33.7582281  23.2766199  89.8887091
  36.1679328  32.7826087  92.6209796  35.4941027  33.0857784  93.2294754
  36.5545150  33.5855167  92.2715253  36.1672833  21.6782634  97.2410145
  36.9144652  22.1904031  96.9317267  36.4364422  21.3566687  98.1014539
  34.4399483  24.1741175  94.2237100  33.5310702  23.8900207  94.3209569
  34.4694567  24.5940253  93.3640406  39.6718750  27.7847764  97.9928267
  39.2181077  26.9438674  98.0493458  39.0412717  28.4209162  98.3303047
  38.6151670  18.7139750  99.2228935  37.8774427  18.2017136  99.5539177
  38.8678443  18.2740132  98.4112212  38.1151690  29.6224261  98.9278085
  38.4074664  30.1829318  98.2090451  38.6250310  29.9152822  99.6831244
  32.9884377  21.7869795 100.3246895  33.0432987  20.8343632 100.2489372
  32.1775579  21.9429234 100.8088193  34.1375571  25.7149918  91.5625178
  33.6995001  24.9985777  91.1030816  34.8786012  25.9426033  91.0010270
  30.9276737  20.4046855  98.0837274  30.1144602  20.7041025  98.4902466
  31.4235731  20.0102544  98.8011756  33.0785315  30.4004612 100.0171539
  33.0361494  30.6265458  99.0880071  33.9948014  30.1667986 100.1657340
  42.2548686  23.9907115  97.6201497  42.1166584  24.1808711  96.6922686
  41.8984904  24.7526498  98.0769548  42.2818065  26.0583642 102.6312768
  42.7154572  25.9658931 103.4795822  42.9949646  26.0341143 101.9932784
  31.1951116  27.2767641  99.8133501  31.9891714  26.7817961  99.6116076
  30.4842808  26.7485504  99.4501207  36.0145960  29.6585736 104.1645869
  36.0682982  30.2276673 104.9323585  35.1460741  29.8287621 103.7999906
  27.5033879  21.4210723  95.8893254  26.5731467  21.3595178  96.1063216
  27.5991351  20.8986675  95.0929895  43.1433615  26.1007343 105.1645654
  43.3369505  27.0053153 105.4104929  43.0434233  25.6414762 105.9984239
  33.7722392  27.8496663 103.4931338  33.6333477  27.4815447 104.3657276
  32.9836988  28.3644302 103.3215296  34.3670544  32.9505759  94.8356875
  34.5422299  32.4793802  95.6502498  33.6803332  33.5771526  95.0638136
  35.3227607  27.2278266 100.8820176  34.9877439  27.1879035 101.7777826
  34.8231552  26.5622981 100.4090586  38.2586798  24.5734300  91.1557236
  37.6415969  23.8481128  91.0590288  37.7903287  25.3343660  90.8124310
  28.9331629  36.0995122 101.6096735  29.1728227  36.7313646 102.2875754
  28.0900825  35.7483162 101.8962094  30.0485344  18.7919724  90.2778540
  29.1714811  18.6708525  89.9140787  30.5243097  18.0005802  90.0257429
  33.4459491  31.9074245 104.0138239  33.3729662  32.7129216 104.5257544
  33.0036884  32.1066210 103.1886260  33.2349270  31.1446015  97.5241061
  32.4516792  31.6867695  97.6179285  33.9342015  31.6619994  97.9235302
  36.5445920  16.9540644 100.1675266  37.0414620  16.2010606  99.8476336
  35.7732902  16.9904961  99.6018475  44.3975678  22.6581010 101.8093557
  44.3865554  23.5405725 101.4387491  43.5293057  22.3052560 101.6148095
  35.9058174  31.8061079 106.1696398  36.6186146  32.4408543 106.0972299
  35.4148203  31.9024945 105.3536400  37.6275701  25.7112331  97.7413689
  36.6931980  25.8313794  97.5718394  37.8052370  24.8084798  97.4773699
  41.0148252  21.5529650  98.2763724  41.4808705  22.3857642  98.2024026
  41.4655753  21.0874632  98.9808982  39.0824484  27.8973472  95.2749876
  39.3584327  27.7830066  96.1843750  38.2128982  27.4990957  95.2362049
  35.7178548  32.1459823  98.9182689  35.9000942  31.3281479  99.3810441
  36.5411534  32.3627515  98.4807579  36.0520713  31.0728008  96.1797738
  36.5808479  30.5620462  95.5667900  36.3148933  30.7570538  97.0443271
  29.4076461  32.1243124  98.9395514  28.7386836  32.6089252  98.4559554
  29.2689331  32.3712345  99.8538892  33.5481730  34.1586868 105.5378172
  34.1000038  34.3218489 106.3027257  33.8887923  34.7491306 104.8658197
  24.7764038  20.3861579  95.7191446  25.0717479  19.4772258  95.6658499
  23.8752074  20.3649319  95.3972448  36.6850117  32.1068843 102.5241854
  36.5601256  31.3058583 102.0152800  37.3429208  32.6015037 102.0355824
  38.7485025  29.9077864 104.1521404  37.8015361  29.7883215 104.0799731
  39.0967798  29.0200362 104.2347666  26.5051880  18.0675677  95.8430771
  26.1764586  17.1873056  95.6605877  26.8591250  18.0123346  96.7307160
  35.7531459  29.7030580 100.3525756  35.6056421  28.7747287 100.5333326
  36.5784952  29.7250670  99.8682832  29.6193703  18.3548647  96.2106249
  29.9589775  18.8834568  95.4884857  30.0665823  18.6929053  96.9864815
  39.3565580  30.5259139 101.4390629  40.2812128  30.3202000 101.3015080
  39.1880884  30.2775540 102.3479971  31.6061850  16.8523268  94.4099541
  32.3270212  17.2304521  93.9063258  30.9827154  17.5712145  94.5134519
  35.7492973  17.5568417  95.3457874  35.9656587  18.4393055  95.0446702
  35.2687040  17.1654631  94.6163516  39.1460897  31.0444806  96.7952721
  39.3197774  30.4791228  96.0426573  39.6389788  31.8445701  96.6132211
  31.7525473  16.3871059  97.2397078  31.8741384  15.4587705  97.4387965
  31.4627515  16.4009745  96.3275393  45.0000288  23.8081229  98.4143020
  45.4431434  23.0588554  98.0162144  44.1226798  23.7991365  98.0316752
  40.1336069  30.3611570  93.8949619  40.8286974  30.9818263  94.1136934
  40.4759219  29.5106922  94.1701997  42.0327492  27.8111276  95.4236950
  42.5578816  28.1498549  94.6986270  41.9449845  26.8758291  95.2400084
  33.7168153  33.8783259  99.7832203  33.2773143  33.3859638 100.4765060
  34.4676270  33.3356227  99.5424278  26.1960492  30.0694800  99.7856831
  27.0218512  29.7698572  99.4055474  25.8454544  29.3002422 100.2346620
  31.1642025  29.4221268 101.8554505  30.5422034  28.7591973 101.5556732
  31.8346892  29.4482400 101.1728152  24.3969097  27.9881127 100.7445765
  23.5601005  27.5603301 100.5629766  24.3692742  28.1813570 101.6816556
  30.7255532  27.9725192  95.3312965  30.8743652  28.6560656  94.6779638
  31.5321975  27.9530282  95.8462421  43.3437470  27.7133587 108.2862898
  43.0522278  28.0763568 109.1226359  42.7309601  27.0000596 108.1076230
  44.5433152  25.2786467 100.8065468  45.3780044  25.7176271 100.9703028
  44.6792281  24.8025120  99.9873714  28.4808165  23.9990369  96.3374034
  28.2354207  23.0952699  96.5354244  28.6504080  24.0007520  95.3953512
  27.7503813  19.7318727  93.8360195  27.0573057  19.8063082  93.1800231
  27.5055564  18.9679070  94.3581712  34.2250938  30.4673322  92.8024712
  33.6524905  31.0863509  92.3495184  34.7983731  31.0172684  93.3364634
  37.4448197  30.7510472  93.9333295  38.3778870  30.6856034  94.1366170
  37.3571410  31.5866739  93.4747827  40.0736214  30.0676343  90.8937242
  39.9949846  29.7336206  91.7873000  40.8945881  30.5598110  90.8928715
  42.7714405  22.9338082 104.1013561  42.7390725  21.9954083 104.2873245
  43.3815029  23.0122119 103.3679386  34.6097736  21.8034135  90.1440765
  35.5556841  21.6740343  90.2129183  34.2311981  21.0648797  90.6210193
  48.5890955  23.9954089 103.2419598  49.3194344  23.7339377 103.8027301
  47.9797901  23.2582811 103.2821666  46.6706252  22.1361951 103.8394049
  45.9439416  22.0017916 103.2310541  46.2553539  22.4438780 104.6450767
  32.7940653  19.7284111  90.0795650  31.8872109  19.4317224  90.1558364
  33.0716634  19.4313929  89.2129936  34.4102719  14.2721001  96.2339892
  33.6003447  13.9268086  96.6095138  35.0987136  13.9628545  96.8227503
  31.5639438  16.5871046  90.2207629  32.4258602  16.9125945  90.4803447
  31.7489782  15.8002542  89.7080695  39.7172074  15.4599573  97.3642852
  39.1370743  16.1184377  96.9820905  39.4508007  14.6376917  96.9530270
  38.4996952  17.6199663  96.4199201  37.6122807  17.9049314  96.2019395
  38.9150941  17.4593427  95.5726478  41.8511488  17.6446184 100.1353540
  42.6271879  18.1342637 100.4078157  41.1259623  18.0704238 100.5925409
  44.2884047  18.3573803 101.1927481  44.8828538  18.1169539 100.4820789
  44.3610631  17.6380934 101.8201017  26.5081203  32.2007414 101.5070645
  26.3735671  31.4407815 100.9408643  26.0913265  32.9248314 101.0399434
  37.6440166  27.3844338  90.5147221  38.3476016  27.5894340  91.1304876
  36.9202815  27.9521100  90.7796304  38.4737976  23.1354199  96.6349491
  38.4173177  23.5922751  95.7957123  39.0266319  22.3744884  96.4572334
  42.2842782  18.9243931  97.4599610  42.0279716  18.5240567  98.2907818
  41.6595650  19.6387725  97.3349749  46.5955120  21.6640004  99.9670902
  46.0354678  21.7333194 100.7402464  45.9898623  21.4880989  99.2470398
  29.6650329  33.0976731 101.7189088  29.5482713  34.0422164 101.6167778
  28.8442775  32.7950293 102.1074887  39.5526863  27.8226867  92.5645681
  40.3872467  27.3908066  92.3823156  39.3911206  27.6508881  93.4922575
  39.2072755  24.3258980  93.9302020  39.1521559  24.1603252  92.9890464
  38.5818811  25.0335013  94.0864210  32.5168881  13.8267089  93.5087338
  32.5047551  14.7708929  93.6655609  33.4092303  13.6437235  93.2146800
  30.6904843  33.7504993 104.9345016  31.5932089  33.7828604 105.2511511
  30.4642213  32.8205444 104.9491352  32.4458445  32.5035980 101.5955095
  31.4954076  32.5037841 101.4819467  32.7490931  31.7568714 101.0791130
  48.1811138  38.3396518 102.6600857  48.8189548  38.2203266 101.9564198
  48.0631981  39.2877362 102.7188810  44.9900845  38.2923946 102.5962382
  44.6519356  38.1765011 101.7082917  45.8590613  37.8915111 102.5763388
  40.8487660  40.1459423  98.5859273  40.2852525  40.0549360  97.8175561
  40.7340055  39.3259327  99.0661766  45.4720628  39.4458798 108.5548588
  45.4609268  39.0511596 107.6829091  45.6341267  38.7124871 109.1482359
  38.3952092  41.6410614 101.4243494  39.1873384  41.3001439 101.0089793
  38.6348742  41.7505589 102.3445647  46.4287219  43.8130390  93.8973738
  45.7775199  44.3984471  93.5107752  47.2231582  44.3436585  93.9568775
  40.3542846  40.9019528  94.2960872  41.1273722  40.3548515  94.1573748
  40.7068245  41.7663777  94.5075334  42.1927889  42.2295910 107.5027772
  41.9017755  43.1341541 107.3874438  42.8284873  42.2712437 108.2171841
  43.1184096  39.6072758 104.0929131  43.7147668  39.3828781 103.3786094
  43.1759067  38.8657504 104.6954579  42.6909124  37.0612194  91.9279322
  42.9434645  36.5393715  91.1662785  41.7533683  36.8978339  92.0306006
  47.7352407  36.0647972  99.7354065  48.5215496  35.6467395  99.3844483
  47.9991111  36.9694064  99.9035714  47.9062484  41.5020822  94.4342722
  47.2708317  41.5755449  95.1463627  47.5759891  42.0914421  93.7561802
  53.1360834  36.0023205 100.6387044  53.8686006  35.4322422 100.8724873
  52.3800190  35.6144806 101.0793550  42.4105413  38.9640300  94.1303697
  42.2941671  38.2885203  94.7984782  42.5207673  38.4772674  93.3135850
  44.7536954  38.4250447  97.8350386  44.3895161  37.8981068  98.5463308
  45.6104070  38.0348916  97.6616872  50.6586254  29.7144779 105.0981653
  50.3269579  30.5840190 104.8742868  50.0631868  29.3981063 105.7775683
  44.3942441  33.4540346  92.8311735  44.5616843  34.3220583  93.1982206
  44.2039610  33.6167628  91.9073024  47.1517774  41.9157325 104.4977565
  46.8518497  42.8182364 104.3893373  46.8068833  41.6489509 105.3498718
  40.6030255  38.3671122 100.5314270  39.6780752  38.2347336 100.7391962
  40.8514668  39.1465341 101.0284212  50.5514918  34.4339866 102.1775003
  49.6431795  34.3655274 101.8833764  50.5002513  34.9111811 103.0056828
  44.3731661  35.9098004  93.8158402  44.2531287  36.3555055  94.6543882
  43.6784250  36.2583322  93.2571940  37.9639066  38.0104396 101.3658059
  38.0931447  38.2638875 102.2797471  37.2836518  38.6032104 101.0462714
  42.1338554  48.6801646  97.4648533  42.0562583  49.6309471  97.5437014
  41.5300197  48.3347518  98.1223459  44.6255783  35.8529511 110.1209900
  43.8489117  36.4123431 110.1112765  45.2646346  36.3386294 110.6424770
  52.4176564  32.6356304 103.9552877  51.7750944  32.9288837 103.3092671
  51.9131492  32.5209224 104.7606073  50.0716728  36.3819477  94.6438736
  50.9834584  36.6146864  94.4686433  49.5626375  36.9656521  94.0813814
  42.8802156  38.6614965 109.6827867  43.6216840  39.2000008 109.4062691
  42.1739141  39.2881253 109.8399419  48.3557495  40.8044105 108.2800028
  48.7640851  40.3626516 107.5354661  47.6334757  40.2296733 108.5334221
  44.7088565  35.7416712 105.6533585  45.5549761  36.1656125 105.7968234
  44.6487203  35.0850336 106.3472148  48.6786310  41.3645296 102.0352317
  48.0495172  41.5291010 101.3328385  48.2911972  41.7786905 102.8063281
  52.5575542  42.2999733  99.3896681  51.8726580  42.6798635  98.8393714
  52.6419391  42.9095060 100.1228629  47.8588011  33.4021080 107.3114759
  47.6148943  34.1563141 106.7749035  48.1347941  33.7806428 108.1462006
  49.8126473  39.9459692 105.9892025  50.0243369  40.5891452 105.3126406
  49.7656222  39.1122009 105.5213955  47.4152702  32.5577513 102.8928597
  46.5537181  32.8558767 103.1845334  47.4415137  32.7747912 101.9609629
  44.2314272  41.1019704  99.3002402  44.6952617  41.3807407  98.5107025
  43.9671070  40.2003148  99.1175493  41.1238353  40.6491185 102.2382166
  41.6939710  41.0778454 101.5999650  41.7146465  40.3673770 102.9366351
  43.1683158  37.2242856  96.1091968  43.8707201  37.6763900  96.5765894
  42.8363786  36.5826675  96.7371861  41.6163519  35.8154613 110.4843177
  40.9862180  36.4970894 110.7178574  41.5099607  35.7037694 109.5396315
  36.9108492  35.4826409 101.4109101  36.1207546  35.7383937 100.9349212
  37.4019739  36.2974747 101.5161142  50.9272301  42.8231648 104.1614382
  51.7489745  42.4211835 103.8797064  50.9234704  42.7199882 105.1130498
  38.8623237  35.8470988  98.3692578  38.0654400  35.9589682  98.8876073
  38.6348829  36.1857640  97.5033468  44.6928905  42.3715691 106.3175092
  44.7573337  42.8336098 107.1533264  43.9839829  41.7413056 106.4457402
  35.1946195  35.7356899 103.8424092  35.4454233  36.6203909 104.1081668
  35.7305743  35.5561501 103.0699184  59.0178294  39.1670396 100.5099353
  58.2642003  38.5977794 100.3543358  59.1525836  39.1333061 101.4569988
  44.4076922  44.0383799  96.1854073  44.2722597  44.8835334  96.6138921
  44.9486735  44.2403076  95.4220007  37.8606320  41.5559237  96.7581998
  38.3730840  42.3502487  96.9087563  38.5129033  40.8585527  96.6915599
  39.6701205  44.6724993  98.8404751  39.8467833  45.5942958  98.6525735
  40.4658038  44.3583412  99.2699131  43.8112223  31.5333258 110.4388685
  44.5521936  32.1340411 110.3593147  44.0430146  30.7910895 109.8806727
  38.9553561  36.7189625 108.7166914  38.8407076  35.8174882 109.0174013
  38.0998079  36.9653322 108.3651731  46.0345399  44.6607365 110.3154415
  45.5909253  43.8743744 109.9975319  46.6962612  44.8486516 109.6498306
  40.7932520  46.1903167 104.8415093  41.3439945  46.0620230 104.0692087
  39.9543996  46.4898056 104.4909986  48.1326637  44.9410165 108.3435816
  48.1145112  45.7619046 107.8516085  49.0546557  44.8164240 108.5685957
  44.5899691  42.4554295 109.1859324  45.1228028  41.6942583 108.9558632
  44.0613772  42.1627946 109.9283479  47.7569386  27.5614361 104.7152966
  47.4133655  28.4516002 104.6392077  48.1248349  27.3716018 103.8522551
  35.8255237  39.8847891  97.5341568  36.6630459  40.2944899  97.3175276
  36.0033504  38.9447333  97.5041762  47.7219669  37.5522972  93.2225401
  47.2066292  38.3227576  93.4613789  47.4496977  36.8788108  93.8458463
  45.3066780  32.3972672  98.2810640  44.4508376  32.0079523  98.1016278
  45.7193732  32.4764633  97.4210425  46.8365926  29.9319016 102.6802199
  46.3330722  29.8949151 101.8670005  47.1296533  30.8411758 102.7398856
  43.0808812  30.0157745 101.6868381  43.9461809  29.8200554 101.3274271
  43.1486321  29.7868097 102.6137738  52.6953943  40.3055326  95.1578575
  51.9183386  39.9666486  94.7133737  53.3745424  40.3107950  94.4833540
  47.5105972  35.4250064  95.0485183  47.2056108  35.7396213  95.8995326
  48.4636414  35.5031484  95.0912516  45.9552404  41.5840287  96.6978136
  45.4273765  40.8493047  96.3851374  45.4539907  42.3614963  96.4518105
  50.9345250  39.7789308 101.8145183  50.2768924  40.4688569 101.9025311
  51.7385649  40.1685740 102.1579169  40.6871131  32.2459953  99.0584748
  41.2614883  32.0235135  98.3257941  41.2742114  32.3148648  99.8113349
  49.7450709  38.1333680  99.8649125  50.2582590  38.7663672 100.3670834
  50.3951933  37.5334876  99.4992485  41.0140719  34.2764414  93.0780633
  40.1778031  34.6139101  93.3989908  40.8745488  34.1413394  92.1407770
  42.9893799  29.1201202  97.7859817  42.3358211  28.8050219  97.1616432
  42.9474273  28.4976943  98.5119640  44.1005004  39.4020497  89.7013110
  43.1932066  39.1709751  89.9004259  44.5976036  38.6058117  89.8887091
  47.0073083  48.1118005  92.6209796  46.3334782  48.4149701  93.2294754
  47.3938905  48.9147085  92.2715253  46.2231539  35.6083136 102.1107465
  45.3054101  35.8298083 101.9529153  46.6391683  35.6829446 101.2519172
  47.0066587  37.0074552  97.2410145  47.7538406  37.5195949  96.9317267
  47.2758177  36.6858604  98.1014539  45.2793237  39.5033092  94.2237100
  44.3704457  39.2192125  94.3209569  45.3088321  39.9232171  93.3640406
  50.5112505  43.1139682  97.9928267  50.0574832  42.2730592  98.0493458
  49.8806472  43.7501080  98.3303047  49.4545424  34.0431668  99.2228935
  48.7168181  33.5309054  99.5539177  49.7072198  33.6032049  98.4112212
  48.9545444  44.9516178  98.9278085  49.2468418  45.5121236  98.2090451
  49.4644065  45.2444739  99.6831244  49.5557052  26.8207920  99.8170704
  49.8615929  25.9605283  99.5296619  50.2809657  27.4125540  99.6169698
  35.8481408  37.2238606  98.2052302  35.6505808  36.6307967  97.4803368
  35.2928072  36.9190817  98.9228241  43.8278131  37.1161713 100.3246895
  43.8826741  36.1635549 100.2489372  43.0169333  37.2721152 100.8088193
  44.9769325  41.0441836  91.5625178  44.5388755  40.3277695  91.1030816
  45.7179766  41.2717951  91.0010270  41.7670491  35.7338773  98.0837274
  40.9538357  36.0332943  98.4902466  42.2629486  35.3394461  98.8011756
  43.9179069  45.7296530 100.0171539  43.8755248  45.9557376  99.0880071
  44.8341768  45.4959904 100.1657340  47.3644703  36.1980597 106.9152168
  47.7194091  36.4252070 107.7746633  48.0116834  36.5298974 106.2929423
  53.0942440  39.3199033  97.6201497  52.9560339  39.5100629  96.6922686
  52.7378659  40.0818416  98.0769548  41.2584566  33.3057128 103.6998509
  41.8983945  33.1645887 103.0021472  40.4262097  33.0191641 103.3237111
  53.1211820  41.3875560 102.6312768  53.5548326  41.2950849 103.4795822
  53.8343400  41.3633060 101.9932784  42.0344870  42.6059559  99.8133501
  42.8285469  42.1109879  99.6116076  41.3236562  42.0777422  99.4501207
  46.8539715  44.9877654 104.1645869  46.9076737  45.5568590 104.9323585
  45.9854496  45.1579539 103.7999906  38.3427634  36.7502640  95.8893254
  37.4125222  36.6887096  96.1063216  38.4385105  36.2278593  95.0929895
  38.2613183  33.2757453  98.4771496  38.5220000  34.1902786  98.3680656
  39.0830355  32.8081896  98.6268108  39.7338108  34.6895210 105.6470320
  40.4061161  34.4812572 104.9982969  38.9067894  34.4917296 105.2075552
  53.9827369  41.4299261 105.1645654  54.1763259  42.3345071 105.4104929
  53.8827987  40.9706680 105.9984239  45.6363680  31.3157151 107.6635981
  44.9891595  32.0147101 107.5700457  46.4064695  31.7493295 108.0312229
  49.0442478  41.5806003 110.7386534  48.8927984  41.3516555 109.8216618
  49.0347157  42.5376605 110.7517879  45.8127814  39.1537916 105.7232801
  46.7419874  39.3049076 105.5501768  45.3918844  39.2421937 104.8681447
  44.6116146  43.1788581 103.4931338  44.4727232  42.8107365 104.3657276
  43.8230742  43.6936220 103.3215296  45.2064298  48.2797677  94.8356875
  45.3816054  47.8085720  95.6502498  44.5197086  48.9063443  95.0638136
  46.1621361  42.5570183 100.8820176  45.8271194  42.5170953 101.7777826
  45.6625307  41.8914899 100.4090586  40.1365605  37.9637813 106.4072757
  39.9985403  37.2318052 107.0084296  41.0470529  37.8746713 106.1256945
  49.0980553  39.9026218  91.1557236  48.4809723  39.1773046  91.0590288
  48.6297041  40.6635578  90.8124310  42.7647906  37.6757773 105.8956437
  43.4747524  37.0350965 105.8543055  42.7217214  37.9270667 106.8182618
  50.7534684  44.6125126 108.8163016  50.6947231  43.9284346 108.1493599
  51.1554203  45.3544116 108.3643642  41.4776840  34.6622990 107.7152076
  40.9414197  34.2113729 108.3673673  40.8893548  34.7968899 106.9722541
  40.8879099  34.1211642  90.2778540  40.0108565  34.0000443  89.9140787
  41.3636852  33.3297720  90.0257429  50.7552092  42.5764710 107.0476996
  49.8678871  42.2390632 107.1703395  51.3250643  41.8447741 107.2845761
  32.4081239  38.9088802 100.3720047  33.0952279  38.5950532  99.7841063
  32.2529368  39.8130166 100.0987299  37.2115961  33.7978998 104.8005071
  37.1274150  33.1904668 104.0655481  36.3898667  34.2888016 104.8014567
  44.2853245  47.2366162 104.0138239  44.2123417  48.0421134 104.5257544
  43.8430638  47.4358128 103.1886260  44.0743025  46.4737932  97.5241061
  43.2910547  47.0159612  97.6179285  44.7735770  46.9911912  97.9235302
  47.3839675  32.2832562 100.1675266  47.8808374  31.5302524  99.8476336
  46.6126656  32.3196878  99.6018475  55.2369432  37.9872927 101.8093557
  55.2259309  38.8697643 101.4387491  54.3686812  37.6344478 101.6148095
  46.7451929  47.1352996 106.1696398  47.4579901  47.7700461 106.0972299
  46.2541957  47.2316862 105.3536400  48.4669456  41.0404249  97.7413689
  47.5325734  41.1605711  97.5718394  48.6446124  40.1376716  97.4773699
  43.9674644  34.4249945  99.8946951  43.5972431  33.8720985 100.5827856
  44.4633736  33.8208078  99.3421951  51.8542007  36.8821568  98.2763724
  52.3202459  37.7149560  98.2024026  52.3049507  36.4166550  98.9808982
  41.7963842  44.8847440 106.9901969  42.4973302  45.5183923 107.1431363
  41.3258957  45.2262171 106.2297608  49.9218238  43.2265389  95.2749876
  50.1978082  43.1121984  96.1843750  49.0522737  42.8282874  95.2362049
  49.8258670  29.2502155 102.3154625  48.9121749  29.4806382 102.4836832
  50.2551771  29.3340599 103.1668657  49.5965128  37.4392047 104.8154519
  48.9436578  37.6867955 104.1606972  49.9745508  36.6256185 104.4816996
  46.5572302  47.4751740  98.9182689  46.7394697  46.6573396  99.3810441
  47.3805288  47.6919433  98.4807579  46.8914468  46.4019925  96.1797738
  47.4202234  45.8912380  95.5667900  47.1542687  46.0862456  97.0443271
  45.6452701  38.1811858 111.3020556  44.9693338  38.0805988 111.9722931
  46.4680335  38.0251072 111.7656553  37.3931560  44.4183795 103.9233071
  37.9784997  43.6727483 104.0560975  37.1956399  44.7287751 104.8069735
  40.2470215  47.4535042  98.9395514  39.5780591  47.9381170  98.4559554
  40.1083085  47.7004263  99.8538892  31.9849215  36.9889395 102.6437514
  32.0233315  36.4552986 103.4374632  31.4789508  36.4624600 102.0248492
  44.3875484  49.4878786 105.5378172  44.9393792  49.6510407 106.3027257
  44.7281678  50.0783223 104.8658197  39.3639977  31.8353935 106.1400057
  39.4281304  32.6968766 105.7277454  39.3007098  31.2227937 105.4072415
  38.8392250  33.9077068 109.7873091  39.4664289  33.5254145 110.4010615
  37.9820169  33.6891270 110.1528783  49.2386358  44.3140043 111.3926826
  49.7826262  44.9270001 110.8981781  48.6573203  44.8719622 111.9093839
  35.6157793  35.7153497  95.7191446  35.9111234  34.8064176  95.6658499
  34.7145828  35.6941237  95.3972448  47.5243871  47.4360761 102.5241854
  47.3995011  46.6350501 102.0152800  48.1822962  47.9306955 102.0355824
  39.1452040  33.7909494 101.7018994  38.4238625  34.4045461 101.5626468
  39.9345295  34.3267258 101.6235640  49.5878780  45.2369781 104.1521404
  48.6409115  45.1175132 104.0799731  49.9361553  44.3492279 104.2347666
  41.9478353  31.1263920 107.9759646  42.4712755  31.3726217 108.7385955
  41.7290686  31.9583955 107.5562783  37.3445634  33.3967595  95.8430771
  37.0158340  32.5164974  95.6605877  37.6985005  33.3415263  96.7307160
  46.5925213  45.0322497 100.3525756  46.4450175  44.1039205 100.5333326
  47.4178707  45.0542588  99.8682832  40.4587457  33.6840565  96.2106249
  40.7983530  34.2126486  95.4884857  40.9059578  34.0220971  96.9864815
  50.1959335  45.8551056 101.4390629  51.1205882  45.6493918 101.3015080
  50.0274638  45.6067457 102.3479971  43.1530898  32.0677615 105.6609317
  42.8127719  31.2685428 106.0629996  42.4469904  32.3679326 105.0886150
  43.8047370  29.1526928 104.1136640  44.6273439  28.6787406 103.9915530
  44.0485434  29.9317411 104.6135326  42.4455604  32.1815186  94.4099541
  43.1663967  32.5596439  93.9063258  41.8220909  32.9004063  94.5134519
  46.5886727  32.8860335  95.3457874  46.8050342  33.7684973  95.0446702
  46.1080795  32.4946549  94.6163516  41.3285949  35.8446048 101.9228618
  41.1830529  36.1586351 102.8152900  40.8511152  36.4630949 101.3699517
  43.1882332  32.8348596 101.9709508  43.1743900  31.9389690 101.6341806
  43.9054760  32.8419260 102.6047794  45.0408462  33.2685937 104.0162635
  44.7826240  34.1903007 104.0146966  44.5093503  32.8716371 104.7063099
  49.9854651  46.3736724  96.7952721  50.1591529  45.8083146  96.0426573
  50.4783542  47.1737619  96.6132211  35.8031611  38.3851393 104.8616279
  35.2585079  39.1611201 104.9936554  36.6810961  38.7322197 104.7035401
  42.5919228  31.7162977  97.2397078  42.7135139  30.7879623  97.4387965
  42.3021270  31.7301663  96.3275393  45.4610418  29.4017887 100.3763798
  45.4832115  29.4657220  99.4215777  45.8778477  28.5622396 100.5704304
  55.8394042  39.1373147  98.4143020  56.2825188  38.3880472  98.0162144
  54.9620553  39.1283283  98.0316752  50.9729824  45.6903488  93.8949619
  51.6680728  46.3110181  94.1136934  51.3152974  44.8398839  94.1701997
  36.5897633  37.5121289 107.7546436  35.8479369  37.6603924 108.3411067
  36.2690377  37.7729555 106.8913186  52.8721247  43.1403194  95.4236950
  53.3972571  43.4790466  94.6986270  52.7843599  42.2050209  95.2400084
  44.5341295  47.0537267 107.5526826  44.8428422  46.8086414 108.4249526
  45.3316777  47.2583906 107.0645697  44.5561907  49.2075177  99.7832203
  44.1166898  48.7151556 100.4765060  45.3070024  48.6648145  99.5424278
  37.0354246  45.3986718  99.7856831  37.8612266  45.0990490  99.4055474
  36.6848298  44.6294340 100.2346620  42.0035780  44.7513186 101.8554505
  41.3815789  44.0883891 101.5556732  42.6740647  44.7774318 101.1728152
  35.2362851  43.3173044 100.7445765  34.3994760  42.8895219 100.5629766
  35.2086497  43.5105488 101.6816556  42.0760307  33.2294974 111.4487011
  42.1248463  34.1057097 111.0664780  42.6182821  32.6872367 110.8758654
  52.5615153  43.7736097 110.7288148  51.7710696  43.7560236 110.1892647
  52.3248507  44.3124391 111.4837184  52.6813028  40.6228564 108.0420876
  52.7311033  40.4578571 108.9836399  52.5726951  39.7555823 107.6518757
  41.5649287  43.3017109  95.3312965  41.7137407  43.9852574  94.6779638
  42.3715730  43.2822199  95.8462421  49.9716790  36.6059492 109.3580183
  50.8726653  36.4665956 109.0664181  50.0464765  36.7713946 110.2978360
  44.3059596  33.9826346 108.2033369  43.4362905  34.2759912 107.9315958
  44.5419076  34.5666791 108.9240633  54.1831225  43.0425505 108.2862898
  53.8916033  43.4055486 109.1226359  53.5703356  42.3292513 108.1076230
  55.3826907  40.6078385 100.8065468  56.2173798  41.0468189 100.9703028
  55.5186036  40.1317038  99.9873714  52.4318413  38.1658120 106.7542956
  52.9072534  38.3585766 105.9461807  51.5083978  38.2217306 106.5086339
  39.3201919  39.3282287  96.3374034  39.0747961  38.4244617  96.5354244
  39.4897834  39.3299437  95.3953512  47.0098629  30.2005963 105.7198790
  47.5280573  30.9366990 105.3945278  46.6553762  30.5069957 106.5545549
  38.5897567  35.0610645  93.8360195  37.8966812  35.1354999  93.1800231
  38.3449319  34.2970988  94.3581712  47.2611224  26.6206246 101.2399686
  47.5412977  25.9529435 101.8660113  48.0461830  26.8135341 100.7274350
  45.0644692  45.7965240  92.8024712  44.4918659  46.4155427  92.3495184
  45.6377486  46.3464601  93.3364634  51.1320082  35.0423880 104.9871261
  52.0837505  35.1421977 105.0083485  50.9623532  34.2502148 105.4969346
  49.1534461  32.1279463 105.1730662  48.5584393  32.4084476 104.4777151
  48.8684158  32.6173364 105.9447403  48.2841952  46.0802390  93.9333295
  49.2172625  46.0147952  94.1366170  48.1965165  46.9158657  93.4747827
  50.9129968  45.3968260  90.8937242  50.8343600  45.0628124  91.7873000
  51.7339635  45.8890028  90.8928715  53.6108160  38.2630000 104.1013561
  53.5784480  37.3246000 104.2873245  54.2208783  38.3414036 103.3679386
  45.4491491  37.1326052  90.1440765  46.3950595  37.0032261  90.2129183
  45.0705735  36.3940714  90.6210193  53.7602648  35.0541043 104.1471844
  53.2441697  34.2699500 103.9601773  54.6442597  34.7259760 104.3118364
  51.4213375  28.7982059 100.1067657  51.2238196  28.4897147 100.9910989
  52.0313081  29.5243697 100.2365587  59.4284710  39.3246006 103.2419598
  60.1588098  39.0631294 103.8027301  58.8191655  38.5874728 103.2821666
  57.5100007  37.4653869 103.8394049  56.7833170  37.3309834 103.2310541
  57.0947294  37.7730698 104.6450767  45.3330183  41.1843799 111.6041422
  46.2533193  41.3622398 111.7981468  45.2979766  40.2399844 111.4521121
  43.6334408  35.0576029  90.0795650  42.7265863  34.7609142  90.1558364
  43.9110389  34.7605847  89.2129936  34.5512348  36.3782392 100.5294697
  34.2315132  35.5247700 100.2369071  34.0045776  36.5930970 101.2852664
  38.3292256  39.0944833 104.2464203  38.5478265  40.0261941 104.2652237
  38.7418029  38.7352808 105.0319007  45.2496473  29.6012919  96.2339892
  44.4397202  29.2560004  96.6095138  45.9380890  29.2920462  96.8227503
  47.1787022  28.6790965  97.8564188  47.7318060  29.0986419  98.5154211
  47.4157108  27.7526714  97.8987144  42.4033192  31.9162964  90.2207629
  43.2652356  32.2417862  90.4803447  42.5883536  31.1294460  89.7080695
  34.4200608  39.9985304 102.4987818  33.7264080  39.5839257 101.9857773
  35.1673599  40.0405840 101.9021237  50.5565829  30.7891491  97.3642852
  49.9764498  31.4476295  96.9820905  50.2901761  29.9668835  96.9530270
  49.0069395  30.1896548  99.5664173  49.5069174  30.3013083  98.7578492
  49.6505003  29.8857601 100.2064981  43.0651391  38.0975178 112.4532014
  42.5818473  38.8975538 112.6595903  43.1512330  38.1083123 111.4999458
  36.3337351  39.9303558 100.3753833  36.3108039  40.0291245  99.4235716
  36.6437987  40.7768708 100.6970999  38.9924728  41.9879713 104.4900447
  39.9467982  41.9563655 104.4230379  38.7937252  41.5270336 105.3050673
  39.5824111  40.5580829 107.0571245  40.4017000  41.0524907 107.0806082
  39.8560918  39.6412797 107.0288813  49.3390707  32.9491581  96.4199201
  48.4516562  33.2341232  96.2019395  49.7544696  32.7885344  95.5726478
  52.6905243  32.9738102 100.1353540  53.4665633  33.4634554 100.4078157
  51.9653377  33.3996156 100.5925409  55.1277802  33.6865721 101.1927481
  55.7222292  33.4461457 100.4820789  55.2004385  32.9672852 101.8201017
  37.3474957  47.5299332 101.5070645  37.2129425  46.7699733 100.9408643
  36.9307020  48.2540232 101.0399434  48.4833920  42.7136256  90.5147221
  49.1869770  42.9186258  91.1304876  47.7596569  43.2813018  90.7796304
  49.3131731  38.4646117  96.6349491  49.2566932  38.9214668  95.7957123
  49.8660073  37.7036801  96.4572334  53.1236536  34.2535849  97.4599610
  52.8673471  33.8532484  98.2907818  52.4989404  34.9679643  97.3349749
  57.4348874  36.9931922  99.9670902  56.8748432  37.0625111 100.7402464
  56.8292378  36.8172907  99.2470398  40.5044083  48.4268649 101.7189088
  40.3876467  49.3714082 101.6167778  39.6836529  48.1242211 102.1074887
  50.3920618  43.1518785  92.5645681  51.2266222  42.7199983  92.3823156
  50.2304961  42.9800799  93.4922575  50.0466510  39.6550898  93.9302020
  49.9915314  39.4895170  92.9890464  49.4212565  40.3626931  94.0864210
  34.8359025  34.8918963 107.7563442  35.4817888  34.3817916 108.2450667
  34.6276176  35.6287644 108.3306867  47.3612417  41.9599810 113.2555583
  48.2303577  42.1340462 112.8942218  46.8819169  42.7794227 113.1331312
  43.3562635  29.1559007  93.5087338  43.3441305  30.1000847  93.6655609
  44.2486057  28.9729153  93.2146800  41.5298597  49.0796911 104.9345016
  42.4325844  49.1120521 105.2511511  41.3035967  48.1497362 104.9491352
  43.2852199  47.8327898 101.5955095  42.3347830  47.8329759 101.4819467
  43.5884685  47.0860632 101.0791130  47.1714755  25.7501784  97.7633275
  46.4047151  25.1960270  97.9089958  47.5825460  25.8223653  98.6247427
  59.0204893  53.6688436 102.6600857  59.6583303  53.5495183 101.9564198
  58.9025736  54.6169280 102.7188810  55.8294599  53.6215864 102.5962382
  55.4913111  53.5056929 101.7082917  56.6984367  53.2207029 102.5763388
  51.6881415  55.4751340  98.5859273  51.1246280  55.3841277  97.8175561
  51.5733810  54.6551245  99.0661766  56.3114382  54.7750716 108.5548588
  56.3003023  54.3803514 107.6829091  56.4735022  54.0416788 109.1482359
  51.1936601  56.2311445  94.2960872  51.9667477  55.6840432  94.1573748
  51.5461999  57.0955695  94.5075334  53.0321643  57.5587828 107.5027772
  52.7411509  58.4633458 107.3874438  53.6678628  57.6004355 108.2171841
  53.9577850  54.9364676 104.0929131  54.5541422  54.7120698 103.3786094
  54.0152822  54.1949422 104.6954579  53.5302878  52.3904111  91.9279322
  53.7828399  51.8685633  91.1662785  52.5927438  52.2270257  92.0306006
  58.5746161  51.3939890  99.7354065  59.3609250  50.9759313  99.3844483
  58.8384866  52.2985982  99.9035714  58.7456239  56.8312740  94.4342722
  58.1102072  56.9047367  95.1463627  58.4153645  57.4206339  93.7561802
  63.9754588  51.3315123 100.6387044  64.7079760  50.7614340 100.8724873
  63.2193944  50.9436723 101.0793550  53.2499167  54.2932217  94.1303697
  53.1335425  53.6177121  94.7984782  53.3601427  53.8064591  93.3135850
  55.5930708  53.7542364  97.8350386  55.2288915  53.2272985  98.5463308
  56.4497824  53.3640834  97.6616872  61.4980009  45.0436697 105.0981653
  61.1663334  45.9132108 104.8742868  60.9025622  44.7272981 105.7775683
  55.2336195  48.7832264  92.8311735  55.4010597  49.6512501  93.1982206
  55.0433364  48.9459546  91.9073024  57.9911528  57.2449243 104.4977565
  57.6912251  58.1474282 104.3893373  57.6462588  56.9781426 105.3498718
  51.4424010  53.6963040 100.5314270  50.5174506  53.5639254 100.7391962
  51.6908423  54.4757259 101.0284212  61.3908672  49.7631783 102.1775003
  60.4825549  49.6947192 101.8833764  61.3396268  50.2403728 103.0056828
  55.2125416  51.2389922  93.8158402  55.0925041  51.6846972  94.6543882
  54.5178004  51.5875239  93.2571940  48.8032821  53.3396313 101.3658059
  48.9325202  53.5930792 102.2797471  48.1230272  53.9324021 101.0462714
  55.4649538  51.1821429 110.1209900  54.6882872  51.7415349 110.1112765
  56.1040101  51.6678212 110.6424770  63.2570318  47.9648222 103.9552877
  62.6144699  48.2580755 103.3092671  62.7525247  47.8501142 104.7606073
  60.9110482  51.7111395  94.6438736  61.8228338  51.9438782  94.4686433
  60.4020129  52.2948439  94.0813814  53.7195910  53.9906882 109.6827867
  54.4610595  54.5291926 109.4062691  53.0132896  54.6173171 109.8399419
  59.1951250  56.1336023 108.2800028  59.6034606  55.6918433 107.5354661
  58.4728511  55.5588650 108.5334221  55.5482320  51.0708629 105.6533585
  56.3943515  51.4948043 105.7968234  55.4880958  50.4142254 106.3472148
  59.5180064  56.6937213 102.0352317  58.8888927  56.8582927 101.3328385
  59.1305727  57.1078823 102.8063281  63.3969296  57.6291651  99.3896681
  62.7120334  58.0090553  98.8393714  63.4813146  58.2386978 100.1228629
  58.6981765  48.7312998 107.3114759  58.4542697  49.4855058 106.7749035
  58.9741696  49.1098345 108.1462006  60.6520228  55.2751610 105.9892025
  60.8637123  55.9183370 105.3126406  60.6049976  54.4413927 105.5213955
  58.2546457  47.8869431 102.8928597  57.3930936  48.1850684 103.1845334
  58.2808892  48.1039830 101.9609629  55.0708026  56.4311621  99.3002402
  55.5346372  56.7099324  98.5107025  54.8064824  55.5295066  99.1175493
  51.9632107  55.9783103 102.2382166  52.5333464  56.4070371 101.5999650
  52.5540219  55.6965688 102.9366351  54.0076912  52.5534774  96.1091968
  54.7100956  53.0055817  96.5765894  53.6757541  51.9118593  96.7371861
  52.4557274  51.1446530 110.4843177  51.8255934  51.8262811 110.7178574
  52.3493362  51.0329612 109.5396315  47.7502246  50.8118326 101.4109101
  46.9601300  51.0675855 100.9349212  48.2413494  51.6266664 101.5161142
  61.7666056  58.1523566 104.1614382  62.5883500  57.7503753 103.8797064
  61.7628459  58.0491800 105.1130498  49.7016992  51.1762906  98.3692578
  48.9048155  51.2881600  98.8876073  49.4742584  51.5149558  97.5033468
  55.5322659  57.7007609 106.3175092  55.5967092  58.1628016 107.1533264
  54.8233583  57.0704974 106.4457402  46.0339949  51.0648817 103.8424092
  46.2847988  51.9495827 104.1081668  46.5699498  50.8853418 103.0699184
  69.8572049  54.4962314 100.5099353  69.1035757  53.9269712 100.3543358
  69.9919590  54.4624979 101.4569988  55.2470677  59.3675716  96.1854073
  55.1116352  60.2127252  96.6138921  55.7880489  59.5694994  95.4220007
  51.7338017  45.4467296 112.8468428  51.3404962  44.8933495 113.5216072
  52.5504157  45.7577875 113.2374946  48.7000074  56.8851154  96.7581998
  49.2124595  57.6794405  96.9087563  49.3522787  56.1877445  96.6915599
  50.5094959  60.0016911  98.8404751  50.6861587  60.9234875  98.6525735
  51.3051793  59.6875330  99.2699131  54.6505978  46.8625175 110.4388685
  55.3915691  47.4632328 110.3593147  54.8823900  46.1202813 109.8806727
  49.7947316  52.0481543 108.7166914  49.6800831  51.1466800 109.0174013
  48.9391833  52.2945239 108.3651731  56.8739153  59.9899283 110.3154415
  56.4303008  59.2035661 109.9975319  57.5356367  60.1778433 109.6498306
  51.6326275  61.5195084 104.8415093  52.1833700  61.3912148 104.0692087
  50.7937750  61.8189973 104.4909986  58.9720391  60.2702083 108.3435816
  58.9538867  61.0910964 107.8516085  59.8940311  60.1456158 108.5685957
  55.4293446  57.7846212 109.1859324  55.9621782  57.0234500 108.9558632
  54.9007527  57.4919864 109.9283479  58.5963141  42.8906278 104.7152966
  58.2527410  43.7807920 104.6392077  58.9642103  42.7007936 103.8522551
  58.5613423  52.8814889  93.2225401  58.0460047  53.6519494  93.4613789
  58.2890732  52.2080026  93.8458463  56.1460534  47.7264590  98.2810640
  55.2902131  47.3371441  98.1016278  56.5587486  47.8056551  97.4210425
  57.6759681  45.2610933 102.6802199  57.1724477  45.2241069 101.8670005
  57.9690288  46.1703676 102.7398856  53.9202567  45.3449663 101.6868381
  54.7855564  45.1492472 101.3274271  53.9880076  45.1160015 102.6137738
  63.5347697  55.6347244  95.1578575  62.7577140  55.2958404  94.7133737
  64.2139178  55.6399867  94.4833540  58.3499726  50.7541981  95.0485183
  58.0449862  51.0688131  95.8995326  59.3030169  50.8323401  95.0912516
  56.7946158  56.9132205  96.6978136  56.2667520  56.1784964  96.3851374
  56.2933661  57.6906881  96.4518105  61.7739004  55.1081225 101.8145183
  61.1162679  55.7980487 101.9025311  62.5779404  55.4977657 102.1579169
  51.5264886  47.5751871  99.0584748  52.1008638  47.3527053  98.3257941
  52.1135868  47.6440566  99.8113349  60.5844463  53.4625598  99.8649125
  61.0976345  54.0955590 100.3670834  61.2345687  52.8626793  99.4992485
  51.8534473  49.6056332  93.0780633  51.0171785  49.9431019  93.3989908
  51.7139243  49.4705312  92.1407770  53.8287554  44.4493120  97.7859817
  53.1751966  44.1342137  97.1616432  53.7868028  43.8268860  98.5119640
  54.9398758  54.7312415  89.7013110  54.0325820  54.5001668  89.9004259
  55.4369790  53.9350034  89.8887091  57.0625294  50.9375054 102.1107465
  56.1447855  51.1590001 101.9529153  57.4785438  51.0121364 101.2519172
  57.8460342  52.3366469  97.2410145  58.5932161  52.8487866  96.9317267
  58.1151931  52.0150522  98.1014539  56.1186992  54.8325010  94.2237100
  55.2098211  54.5484043  94.3209569  56.1482076  55.2524088  93.3640406
  61.3506259  58.4431599  97.9928267  60.8968586  57.6022509  98.0493458
  60.7200226  59.0792998  98.3303047  60.2939179  49.3723585  99.2228935
  59.5561936  48.8600972  99.5539177  60.5465952  48.9323967  98.4112212
  59.7939199  60.2808096  98.9278085  60.0862173  60.8413153  98.2090451
  60.3037819  60.5736657  99.6831244  60.3950806  42.1499837  99.8170704
  60.7009683  41.2897201  99.5296619  61.1203411  42.7417458  99.6169698
  54.6671886  52.4453631 100.3246895  54.7220496  51.4927467 100.2489372
  53.8563088  52.6013070 100.8088193  55.8163080  56.3733754  91.5625178
  55.3782510  55.6569613  91.1030816  56.5573521  56.6009868  91.0010270
  52.6064246  51.0630690  98.0837274  51.7932111  51.3624861  98.4902466
  53.1023240  50.6686379  98.8011756  54.7572824  61.0588447 100.0171539
  54.7149003  61.2849293  99.0880071  55.6735523  60.8251822 100.1657340
  58.2038458  51.5272515 106.9152168  58.5587845  51.7543988 107.7746633
  58.8510589  51.8590892 106.2929423  63.9336194  54.6490951  97.6201497
  63.7954093  54.8392547  96.6922686  63.5772413  55.4110333  98.0769548
  52.0978321  48.6349046 103.6998509  52.7377700  48.4937805 103.0021472
  51.2655851  48.3483559 103.3237111  63.9605574  56.7167478 102.6312768
  64.3942081  56.6242767 103.4795822  64.6737155  56.6924978 101.9932784
  52.8738625  57.9351476  99.8133501  53.6679223  57.4401796  99.6116076
  52.1630317  57.4069339  99.4501207  57.6933469  60.3169572 104.1645869
  57.7470491  60.8860508 104.9323585  56.8248250  60.4871457 103.7999906
  49.1821388  52.0794558  95.8893254  48.2518976  52.0179013  96.1063216
  49.2778860  51.5570511  95.0929895  49.1006937  48.6049371  98.4771496
  49.3613754  49.5194704  98.3680656  49.9224109  48.1373813  98.6268108
  50.5731862  50.0187128 105.6470320  51.2454916  49.8104490 104.9982969
  49.7461649  49.8209214 105.2075552  64.8221124  56.7591178 105.1645654
  65.0157014  57.6636989 105.4104929  64.7221742  56.2998597 105.9984239
  56.4757434  46.6449069 107.6635981  55.8285349  47.3439019 107.5700457
  57.2458450  47.0785213 108.0312229  59.8836232  56.9097921 110.7386534
  59.7321739  56.6808473 109.8216618  59.8740912  57.8668522 110.7517879
  56.6521569  54.4829834 105.7232801  57.5813629  54.6340993 105.5501768
  56.2312599  54.5713855 104.8681447  55.4509901  58.5080498 103.4931338
  55.3120986  58.1399283 104.3657276  54.6624497  59.0228138 103.3215296
  57.0015116  57.8862101 100.8820176  56.6664948  57.8462871 101.7777826
  56.5019061  57.2206817 100.4090586  50.9759360  53.2929731 106.4072757
  50.8379158  52.5609970 107.0084296  51.8864283  53.2038631 106.1256945
  59.9374307  55.2318135  91.1557236  59.3203478  54.5064963  91.0590288
  59.4690796  55.9927496  90.8124310  53.6041660  53.0049690 105.8956437
  54.3141279  52.3642882 105.8543055  53.5610968  53.2562585 106.8182618
  61.5928439  59.9417044 108.8163016  61.5340985  59.2576264 108.1493599
  61.9947957  60.6836034 108.3643642  52.3170594  49.9914908 107.7152076
  51.7807951  49.5405647 108.3673673  51.7287303  50.1260817 106.9722541
  51.7272853  49.4503560  90.2778540  50.8502320  49.3292360  89.9140787
  52.2030606  48.6589638  90.0257429  61.5945846  57.9056628 107.0476996
  60.7072625  57.5682549 107.1703395  62.1644397  57.1739659 107.2845761
  48.0509716  49.1270916 104.8005071  47.9667904  48.5196585 104.0655481
  47.2292422  49.6179934 104.8014567  55.1247000  62.5658080 104.0138239
  55.0517171  63.3713051 104.5257544  54.6824393  62.7650046 103.1886260
  54.9136779  61.8029850  97.5241061  54.1304301  62.3451530  97.6179285
  55.6129524  62.3203830  97.9235302  58.2233429  47.6124479 100.1675266
  58.7202129  46.8594442  99.8476336  57.4520411  47.6488796  99.6018475
  66.0763187  53.3164845 101.8093557  66.0653063  54.1989560 101.4387491
  65.2080566  52.9636396 101.6148095  57.5845683  62.4644914 106.1696398
  58.2973655  63.0992379 106.0972299  57.0935712  62.5608780 105.3536400
  59.3063210  56.3696167  97.7413689  58.3719489  56.4897629  97.5718394
  59.4839879  55.4668633  97.4773699  54.8068398  49.7541862  99.8946951
  54.4366186  49.2012903 100.5827856  55.3027491  49.1499996  99.3421951
  62.6935761  52.2113486  98.2763724  63.1596214  53.0441477  98.2024026
  63.1443262  51.7458467  98.9808982  52.6357597  60.2139357 106.9901969
  53.3367056  60.8475840 107.1431363  52.1652712  60.5554089 106.2297608
  60.7611993  58.5557307  95.2749876  61.0371836  58.4413902  96.1843750
  59.8916491  58.1574792  95.2362049  60.6652424  44.5794073 102.3154625
  59.7515504  44.8098300 102.4836832  61.0945526  44.6632517 103.1668657
  60.4358883  52.7683965 104.8154519  59.7830333  53.0159872 104.1606972
  60.8139263  51.9548103 104.4816996  56.4846456  53.5103776 111.3020556
  55.8087093  53.4097905 111.9722931  57.3074090  53.3542990 111.7656553
  48.2325315  59.7475712 103.9233071  48.8178752  59.0019400 104.0560975
  48.0350153  60.0579669 104.8069735  42.8242969  52.3181313 102.6437514
  42.8627069  51.7844903 103.4374632  42.3183262  51.7916518 102.0248492
  55.2269239  64.8170703 105.5378172  55.7787547  64.9802325 106.3027257
  55.5675432  65.4075141 104.8658197  50.2033732  47.1645853 106.1400057
  50.2675058  48.0260684 105.7277454  50.1400852  46.5519855 105.4072415
  49.6786004  49.2368986 109.7873091  50.3058043  48.8546063 110.4010615
  48.8213923  49.0183188 110.1528783  60.0780113  59.6431961 111.3926826
  60.6220017  60.2561919 110.8981781  59.4966958  60.2011539 111.9093839
  46.4551547  51.0445415  95.7191446  46.7504988  50.1356093  95.6658499
  45.5539583  51.0233154  95.3972448  58.3637626  62.7652679 102.5241854
  58.2388765  61.9642419 102.0152800  59.0216717  63.2598872 102.0355824
  49.9845794  49.1201411 101.7018994  49.2632380  49.7337379 101.5626468
  50.7739050  49.6559176 101.6235640  60.4272534  60.5661699 104.1521404
  59.4802870  60.4467050 104.0799731  60.7755307  59.6784197 104.2347666
  52.7872108  46.4555838 107.9759646  53.3106509  46.7018134 108.7385955
  52.5684441  47.2875873 107.5562783  48.1839389  48.7259512  95.8430771
  47.8552095  47.8456891  95.6605877  48.5378759  48.6707181  96.7307160
  57.4318968  60.3614415 100.3525756  57.2843930  59.4331123 100.5333326
  58.2572461  60.3834506  99.8682832  51.2981212  49.0132482  96.2106249
  51.6377284  49.5418403  95.4884857  51.7453332  49.3512888  96.9864815
  61.0353089  61.1842974 101.4390629  61.9599637  60.9785835 101.3015080
  60.8668393  60.9359375 102.3479971  53.9924653  47.3969533 105.6609317
  53.6521473  46.5977346 106.0629996  53.2863659  47.6971244 105.0886150
  54.6441124  44.4818845 104.1136640  55.4667194  44.0079324 103.9915530
  54.8879188  45.2609329 104.6135326  53.2849359  47.5107104  94.4099541
  54.0057721  47.8888357  93.9063258  52.6614663  48.2295981  94.5134519
  57.4280482  48.2152253  95.3457874  57.6444096  49.0976891  95.0446702
  56.9474549  47.8238466  94.6163516  52.1679703  51.1737966 101.9228618
  52.0224284  51.4878269 102.8152900  51.6904907  51.7922866 101.3699517
  54.0276086  48.1640514 101.9709508  54.0137655  47.2681607 101.6341806
  54.7448514  48.1711178 102.6047794  55.8802217  48.5977854 104.0162635
  55.6219995  49.5194925 104.0146966  55.3487257  48.2008289 104.7063099
  46.6425365  53.7143310 104.8616279  46.0978833  54.4903118 104.9936554
  47.5204715  54.0614115 104.7035401  53.4312982  47.0454894  97.2397078
  53.5528893  46.1171540  97.4387965  53.1415024  47.0593580  96.3275393
  56.3004172  44.7309805 100.3763798  56.3225869  44.7949138  99.4215777
  56.7172231  43.8914313 100.5704304  66.6787797  54.4665064  98.4143020
  67.1218943  53.7172389  98.0162144  65.8014307  54.4575201  98.0316752
  47.4291387  52.8413207 107.7546436  46.6873123  52.9895842 108.3411067
  47.1084132  53.1021472 106.8913186  63.7115001  58.4695111  95.4236950
  64.2366325  58.8082384  94.6986270  63.6237354  57.5342127  95.2400084
  55.3735050  62.3829185 107.5526826  55.6822176  62.1378332 108.4249526
  56.1710532  62.5875823 107.0645697  52.8429534  60.0805104 101.8554505
  52.2209543  59.4175809 101.5556732  53.5134401  60.1066236 101.1728152
  52.9154062  48.5586892 111.4487011  52.9642217  49.4349014 111.0664780
  53.4576576  48.0164285 110.8758654  63.4008907  59.1028015 110.7288148
  62.6104451  59.0852154 110.1892647  63.1642262  59.6416309 111.4837184
  63.5206782  55.9520481 108.0420876  63.5704787  55.7870489 108.9836399
  63.4120706  55.0847740 107.6518757  52.4043041  58.6309027  95.3312965
  52.5531161  59.3144491  94.6779638  53.2109484  58.6114117  95.8462421
  60.8110545  51.9351409 109.3580183  61.7120407  51.7957874 109.0664181
  60.8858519  52.1005864 110.2978360  55.1453350  49.3118264 108.2033369
  54.2756659  49.6051830 107.9315958  55.3812830  49.8958709 108.9240633
  65.0224979  58.3717423 108.2862898  64.7309787  58.7347403 109.1226359
  64.4097110  57.6584431 108.1076230  66.2220661  55.9370303 100.8065468
  67.0567553  56.3760107 100.9703028  66.3579790  55.4608956  99.9873714
  63.2712167  53.4950037 106.7542956  63.7466289  53.6877684 105.9461807
  62.3477733  53.5509223 106.5086339  50.1595674  54.6574205  96.3374034
  49.9141716  53.7536535  96.5354244  50.3291589  54.6591355  95.3953512
  57.8492384  45.5297881 105.7198790  58.3674328  46.2658908 105.3945278
  57.4947517  45.8361874 106.5545549  49.4291322  50.3902562  93.8360195
  48.7360566  50.4646917  93.1800231  49.1843073  49.6262906  94.3581712
  58.1004978  41.9498164 101.2399686  58.3806732  41.2821353 101.8660113
  58.8855585  42.1427259 100.7274350  61.9713836  50.3715798 104.9871261
  62.9231259  50.4713895 105.0083485  61.8017287  49.5794066 105.4969346
  59.9928216  47.4571381 105.1730662  59.3978148  47.7376393 104.4777151
  59.7077913  47.9465282 105.9447403  64.4501914  53.5921917 104.1013561
  64.4178234  52.6537918 104.2873245  65.0602538  53.6705954 103.3679386
  56.2885245  52.4617970  90.1440765  57.2344350  52.3324178  90.2129183
  55.9099490  51.7232632  90.6210193  64.5996403  50.3832961 104.1471844
  64.0835451  49.5991417 103.9601773  65.4836351  50.0551677 104.3118364
  62.2607130  44.1273976 100.1067657  62.0631951  43.8189064 100.9910989
  62.8706835  44.8535615 100.2365587  70.2678464  54.6537924 103.2419598
  70.9981852  54.3923212 103.8027301  69.6585409  53.9166646 103.2821666
  68.3493761  52.7945787 103.8394049  67.6226925  52.6601752 103.2310541
  67.9341048  53.1022615 104.6450767  56.1723938  56.5135716 111.6041422
  57.0926947  56.6914315 111.7981468  56.1373521  55.5691762 111.4521121
  54.4728162  50.3867947  90.0795650  53.5659618  50.0901059  90.1558364
  54.7504143  50.0897765  89.2129936  45.3906103  51.7074310 100.5294697
  45.0708887  50.8539618 100.2369071  44.8439531  51.9222888 101.2852664
  49.1686010  54.4236751 104.2464203  49.3872020  55.3553859 104.2652237
  49.5811784  54.0644725 105.0319007  56.0890228  44.9304836  96.2339892
  55.2790956  44.5851921  96.6095138  56.7774645  44.6212380  96.8227503
  58.0180776  44.0082883  97.8564188  58.5711815  44.4278337  98.5154211
  58.2550863  43.0818631  97.8987144  54.0413875  49.9969957 113.6366952
  53.9410602  50.9464314 113.5679043  53.8235417  49.6688196 112.7643022
  53.2426947  47.2454882  90.2207629  54.1046111  47.5709780  90.4803447
  53.4277291  46.4586378  89.7080695  61.3959583  46.1183408  97.3642852
  60.8158252  46.7768212  96.9820905  61.1295516  45.2960753  96.9530270
  59.8463150  45.5188466  99.5664173  60.3462928  45.6305000  98.7578492
  60.4898758  45.2149519 100.2064981  53.9045145  53.4267096 112.4532014
  53.4212227  54.2267456 112.6595903  53.9906085  53.4375040 111.4999458
  49.8318483  57.3171630 104.4900447  50.7861737  57.2855573 104.4230379
  49.6331007  56.8562254 105.3050673  50.4217865  55.8872746 107.0571245
  51.2410754  56.3816825 107.0806082  50.6954673  54.9704714 107.0288813
  60.1784461  48.2783499  96.4199201  59.2910316  48.5633149  96.2019395
  60.5938450  48.1177262  95.5726478  63.5298997  48.3030020 100.1353540
  64.3059388  48.7926472 100.4078157  62.8047132  48.7288074 100.5925409
  65.9671556  49.0157639 101.1927481  66.5616047  48.7753375 100.4820789
  66.0398140  48.2964769 101.8201017  60.1525485  53.7938035  96.6349491
  60.0960686  54.2506586  95.7957123  60.7053828  53.0328719  96.4572334
  63.9630291  49.5827766  97.4599610  63.7067225  49.1824402  98.2907818
  63.3383159  50.2971560  97.3349749  68.2742629  52.3223840  99.9670902
  67.7142187  52.3917029 100.7402464  67.6686132  52.1464824  99.2470398
  51.3437838  63.7560567 101.7189088  51.2270222  64.7005999 101.6167778
  50.5230284  63.4534128 102.1074887  61.2314372  58.4810702  92.5645681
  62.0659976  58.0491901  92.3823156  61.0698715  58.3092716  93.4922575
  60.8860264  54.9842816  93.9302020  60.8309068  54.8187087  92.9890464
  60.2606320  55.6918849  94.0864210  45.6752779  50.2210880 107.7563442
  46.3211643  49.7109834 108.2450667  45.4669930  50.9579562 108.3306867
  58.2006172  57.2891728 113.2555583  59.0697331  57.4632380 112.8942218
  57.7212923  58.1086144 113.1331312  54.1956390  44.4850925  93.5087338
  54.1835060  45.4292765  93.6655609  55.0879812  44.3021070  93.2146800
  52.3692352  64.4088829 104.9345016  53.2719598  64.4412439 105.2511511
  52.1429722  63.4789280 104.9491352  54.1245954  63.1619815 101.5955095
  53.1741585  63.1621677 101.4819467  54.4278440  62.4152550 101.0791130
  58.0108509  41.0793701  97.7633275  57.2440905  40.5252188  97.9089958
  58.4219214  41.1515570  98.6247427  50.0150270  47.3678497 111.8538456
  50.8781732  47.0115302 112.0641781  49.4415681  47.0292392 112.5413861
  69.8598647  68.9980354 102.6600857  70.4977057  68.8787101 101.9564198
  69.7419490  69.9461198 102.7188810  66.6688354  68.9507782 102.5962382
  66.3306865  68.8348846 101.7082917  67.5378122  68.5498947 102.5763388
  67.1508137  70.1042633 108.5548588  67.1396777  69.7095432 107.6829091
  67.3128776  69.3708706 109.1482359  63.8715398  72.8879745 107.5027772
  63.5805264  73.7925376 107.3874438  64.5072382  72.9296273 108.2171841
  64.7971605  70.2656594 104.0929131  65.3935177  70.0412616 103.3786094
  64.8546576  69.5241339 104.6954579  69.4139916  66.7231807  99.7354065
  70.2003005  66.3051231  99.3844483  69.6778620  67.6277900  99.9035714
  74.8148343  66.6607041 100.6387044  75.5473515  66.0906257 100.8724873
  74.0587699  66.2728641 101.0793550  72.3373763  60.3728615 105.0981653
  72.0057088  61.2424026 104.8742868  71.7419377  60.0564899 105.7775683
  68.8305283  72.5741161 104.4977565  68.5306006  73.4766200 104.3893373
  68.4856342  72.3073344 105.3498718  62.2817764  69.0254958 100.5314270
  61.3568261  68.8931172 100.7391962  62.5302177  69.8049177 101.0284212
  72.2302427  65.0923701 102.1775003  71.3219304  65.0239109 101.8833764
  72.1790022  65.5695646 103.0056828  66.3043292  66.5113347 110.1209900
  65.5276626  67.0707267 110.1112765  66.9433855  66.9970130 110.6424770
  74.0964073  63.2940139 103.9552877  73.4538453  63.5872672 103.3092671
  73.5919001  63.1793060 104.7606073  64.5589665  69.3198800 109.6827867
  65.3004349  69.8583844 109.4062691  63.8526650  69.9465089 109.8399419
  70.0345004  71.4627940 108.2800028  70.4428360  71.0210351 107.5354661
  69.3122266  70.8880568 108.5334221  66.3876074  66.4000547 105.6533585
  67.2337270  66.8239961 105.7968234  66.3274712  65.7434171 106.3472148
  70.3573819  72.0229131 102.0352317  69.7282681  72.1874845 101.3328385
  69.9699481  72.4370741 102.8063281  74.2363051  72.9583569  99.3896681
  73.5514089  73.3382470  98.8393714  74.3206900  73.5678895 100.1228629
  69.5375520  64.0604915 107.3114759  69.2936452  64.8146976 106.7749035
  69.8135450  64.4390263 108.1462006  71.4913982  70.6043528 105.9892025
  71.7030878  71.2475288 105.3126406  71.4443731  69.7705844 105.5213955
  69.0940211  63.2161348 102.8928597  68.2324690  63.5142602 103.1845334
  69.1202646  63.4331747 101.9609629  62.8025862  71.3075021 102.2382166
  63.3727219  71.7362289 101.5999650  63.3933974  71.0257605 102.9366351
  63.2951028  66.4738448 110.4843177  62.6649689  67.1554729 110.7178574
  63.1887116  66.3621530 109.5396315  58.5896001  66.1410244 101.4109101
  57.7995055  66.3967773 100.9349212  59.0807248  66.9558582 101.5161142
  72.6059810  73.4815483 104.1614382  73.4277254  73.0795671 103.8797064
  72.6022213  73.3783717 105.1130498  66.3716414  73.0299527 106.3175092
  66.4360846  73.4919934 107.1533264  65.6627338  72.3996891 106.4457402
  56.8733704  66.3940735 103.8424092  57.1241742  67.2787744 104.1081668
  57.4093252  66.2145336 103.0699184  80.6965803  69.8254232 100.5099353
  79.9429512  69.2561630 100.3543358  80.8313345  69.7916896 101.4569988
  62.5731771  60.7759214 112.8468428  62.1798717  60.2225412 113.5216072
  63.3897911  61.0869792 113.2374946  65.4899732  62.1917093 110.4388685
  66.2309445  62.7924246 110.3593147  65.7217655  61.4494731 109.8806727
  60.6341070  67.3773460 108.7166914  60.5194585  66.4758717 109.0174013
  59.7785588  67.6237157 108.3651731  67.7132908  75.3191201 110.3154415
  67.2696762  74.5327579 109.9975319  68.3750121  75.5070351 109.6498306
  62.4720029  76.8487002 104.8415093  63.0227454  76.7204066 104.0692087
  61.6331505  77.1481891 104.4909986  69.8114146  75.5994000 108.3435816
  69.7932621  76.4202882 107.8516085  70.7334066  75.4748076 108.5685957
  66.2687200  73.1138130 109.1859324  66.8015537  72.3526418 108.9558632
  65.7401281  72.8211782 109.9283479  69.4356895  58.2198196 104.7152966
  69.0921164  59.1099838 104.6392077  69.8035858  58.0299854 103.8522551
  68.5153435  60.5902851 102.6802199  68.0118231  60.5532986 101.8670005
  68.8084042  61.4995594 102.7398856  64.7596321  60.6741581 101.6868381
  65.6249318  60.4784389 101.3274271  64.8273830  60.4451933 102.6137738
  74.3741452  70.9639162  95.1578575  73.5970895  70.6250321  94.7133737
  75.0532933  70.9691785  94.4833540  72.6132759  70.4373143 101.8145183
  71.9556433  71.1272404 101.9025311  73.4173158  70.8269575 102.1579169
  62.3658640  62.9043789  99.0584748  62.9402392  62.6818970  98.3257941
  62.9529623  62.9732483  99.8113349  71.4238218  68.7917516  99.8649125
  71.9370099  69.4247507 100.3670834  72.0739441  68.1918711  99.4992485
  64.6681308  59.7785038  97.7859817  64.0145720  59.4634055  97.1616432
  64.6261782  59.1560778  98.5119640  67.9019048  66.2666971 102.1107465
  66.9841610  66.4881918 101.9529153  68.3179192  66.3413282 101.2519172
  72.1900014  73.7723517  97.9928267  71.7362341  72.9314427  98.0493458
  71.5593981  74.4084915  98.3303047  71.1332933  64.7015503  99.2228935
  70.3955690  64.1892889  99.5539177  71.3859707  64.2615885  98.4112212
  70.6332953  75.6100014  98.9278085  70.9255927  76.1705071  98.2090451
  71.1431574  75.9028575  99.6831244  71.2344561  57.4791755  99.8170704
  71.5403438  56.6189119  99.5296619  71.9597166  58.0709375  99.6169698
  69.0432212  66.8564432 106.9152168  69.3981600  67.0835906 107.7746633
  69.6904343  67.1882809 106.2929423  74.7729949  69.9782868  97.6201497
  74.6347848  70.1684464  96.6922686  74.4166168  70.7402251  98.0769548
  62.9372075  63.9640963 103.6998509  63.5771454  63.8229723 103.0021472
  62.1049606  63.6775477 103.3237111  74.7999329  72.0459395 102.6312768
  75.2335835  71.9534684 103.4795822  75.5130909  72.0216896 101.9932784
  68.5327223  75.6461489 104.1645869  68.5864246  76.2152426 104.9323585
  67.6642005  75.8163374 103.7999906  61.4125617  65.3479046 105.6470320
  62.0848670  65.1396408 104.9982969  60.5855403  65.1501132 105.2075552
  75.6614878  72.0883096 105.1645654  75.8550768  72.9928906 105.4104929
  75.5615496  71.6290515 105.9984239  67.3151189  61.9740987 107.6635981
  66.6679104  62.6730936 107.5700457  68.0852204  62.4077130 108.0312229
  70.7229987  72.2389839 110.7386534  70.5715493  72.0100390 109.8216618
  70.7134666  73.1960440 110.7517879  67.4915323  69.8121751 105.7232801
  68.4207383  69.9632911 105.5501768  67.0706353  69.9005772 104.8681447
  66.2903655  73.8372416 103.4931338  66.1514741  73.4691200 104.3657276
  65.5018251  74.3520055 103.3215296  67.8408870  73.2154019 100.8820176
  67.5058703  73.1754789 101.7777826  67.3412816  72.5498734 100.4090586
  61.8153114  68.6221649 106.4072757  61.6772912  67.8901887 107.0084296
  62.7258038  68.5330549 106.1256945  64.4435415  68.3341608 105.8956437
  65.1535033  67.6934800 105.8543055  64.4004723  68.5854503 106.8182618
  72.4322193  75.2708961 108.8163016  72.3734740  74.5868181 108.1493599
  72.8341712  76.0127951 108.3643642  63.1564349  65.3206826 107.7152076
  62.6201706  64.8697564 108.3673673  62.5681057  65.4552735 106.9722541
  61.4512892  82.0870875 101.6096735  61.6909490  82.7189399 102.2875754
  60.6082089  81.7358915 101.8962094  72.4339601  73.2348545 107.0476996
  71.5466380  72.8974467 107.1703395  73.0038152  72.5031576 107.2845761
  58.8903470  64.4562833 104.8005071  58.8061659  63.8488503 104.0655481
  58.0686176  64.9471852 104.8014567  65.9640754  77.8949998 104.0138239
  65.8910926  78.7004969 104.5257544  65.5218147  78.0941963 103.1886260
  69.0627184  62.9416397 100.1675266  69.5595883  62.1886359  99.8476336
  68.2914165  62.9780714  99.6018475  76.9156941  68.6456763 101.8093557
  76.9046818  69.5281478 101.4387491  76.0474321  68.2928313 101.6148095
  68.4239438  77.7936832 106.1696398  69.1367410  78.4284296 106.0972299
  67.9329466  77.8900698 105.3536400  70.1456965  71.6988084  97.7413689
  69.2113243  71.8189547  97.5718394  70.3233633  70.7960551  97.4773699
  73.5329516  67.5405404  98.2763724  73.9989968  68.3733395  98.2024026
  73.9837016  67.0750385  98.9808982  63.4751351  75.5431275 106.9901969
  64.1760811  76.1767758 107.1431363  63.0046466  75.8846007 106.2297608
  71.6005747  73.8849225  95.2749876  71.8765591  73.7705819  96.1843750
  70.7310246  73.4866710  95.2362049  71.5046179  59.9085991 102.3154625
  70.5909258  60.1390217 102.4836832  71.9339280  59.9924435 103.1668657
  71.2752637  68.0975882 104.8154519  70.6224087  68.3451790 104.1606972
  71.6533017  67.2840021 104.4816996  68.2359811  78.1335576  98.9182689
  68.4182206  77.3157232  99.3810441  69.0592797  78.3503268  98.4807579
  68.5701977  77.0603761  96.1797738  69.0989743  76.5496215  95.5667900
  68.8330196  76.7446291  97.0443271  67.3240210  68.8395694 111.3020556
  66.6480847  68.7389823 111.9722931  68.1467844  68.6834907 111.7656553
  59.0719069  75.0767630 103.9233071  59.6572506  74.3311318 104.0560975
  58.8743908  75.3871587 104.8069735  66.0662993  80.1462621 105.5378172
  66.6181301  80.3094242 106.3027257  66.4069187  80.7367059 104.8658197
  61.0427486  62.4937771 106.1400057  61.1068813  63.3552602 105.7277454
  60.9794607  61.8811772 105.4072415  60.5179759  64.5660903 109.7873091
  61.1451798  64.1837981 110.4010615  59.6607678  64.3475105 110.1528783
  70.9173867  74.9723879 111.3926826  71.4613771  75.5853837 110.8981781
  70.3360712  75.5303457 111.9093839  69.2031380  78.0944597 102.5241854
  69.0782520  77.2934336 102.0152800  69.8610471  78.5890790 102.0355824
  60.8239549  64.4493329 101.7018994  60.1026134  65.0629297 101.5626468
  61.6132804  64.9851094 101.6235640  71.2666289  75.8953617 104.1521404
  70.3196624  75.7758968 104.0799731  71.6149062  75.0076115 104.2347666
  63.6265862  61.7847756 107.9759646  64.1500264  62.0310052 108.7385955
  63.4078195  62.6167790 107.5562783  68.2712722  75.6906333 100.3525756
  68.1237684  74.7623040 100.5333326  69.0966216  75.7126424  99.8682832
  71.8746844  76.5134892 101.4390629  72.7993391  76.3077753 101.3015080
  71.7062147  76.2651293 102.3479971  64.8318407  62.7261451 105.6609317
  64.4915227  61.9269264 106.0629996  64.1257413  63.0263161 105.0886150
  65.4834879  59.8110763 104.1136640  66.3060948  59.3371241 103.9915530
  65.7272942  60.5901247 104.6135326  63.0073458  66.5029884 101.9228618
  62.8618038  66.8170187 102.8152900  62.5298661  67.1214784 101.3699517
  64.8669841  63.4932432 101.9709508  64.8531409  62.5973525 101.6341806
  65.5842269  63.5003095 102.6047794  66.7195971  63.9269772 104.0162635
  66.4613749  64.8486843 104.0146966  66.1881012  63.5300206 104.7063099
  71.6642160  77.0320559  96.7952721  71.8379038  76.4666981  96.0426573
  72.1571051  77.8321454  96.6132211  57.4819120  69.0435228 104.8616279
  56.9372588  69.8195036 104.9936554  58.3598470  69.3906033 104.7035401
  67.1397927  60.0601722 100.3763798  67.1619624  60.1241055  99.4215777
  67.5565986  59.2206231 100.5704304  77.5181551  69.7956982  98.4143020
  77.9612697  69.0464307  98.0162144  76.6408062  69.7867118  98.0316752
  58.2685142  68.1705124 107.7546436  57.5266878  68.3187760 108.3411067
  57.9477886  68.4313390 106.8913186  74.5508756  73.7987029  95.4236950
  75.0760080  74.1374302  94.6986270  74.4631108  72.8634044  95.2400084
  66.2128804  77.7121103 107.5526826  66.5215931  77.4670249 108.4249526
  67.0104286  77.9167741 107.0645697  66.2349416  79.8659012  99.7832203
  65.7954407  79.3735391 100.4765060  66.9857533  79.3231980  99.5424278
  63.6823289  75.4097021 101.8554505  63.0603298  74.7467726 101.5556732
  64.3528155  75.4358153 101.1728152  63.7547816  63.8878809 111.4487011
  63.8035972  64.7640932 111.0664780  64.2970330  63.3456202 110.8758654
  74.2402662  74.4319933 110.7288148  73.4498205  74.4144071 110.1892647
  74.0036016  74.9708226 111.4837184  74.3600537  71.2812399 108.0420876
  74.4098542  71.1162406 108.9836399  74.2514460  70.4139658 107.6518757
  71.6504299  67.2643327 109.3580183  72.5514162  67.1249792 109.0664181
  71.7252274  67.4297782 110.2978360  65.9847105  64.6410182 108.2033369
  65.1150414  64.9343748 107.9315958  66.2206585  65.2250627 108.9240633
  75.8618734  73.7009340 108.2862898  75.5703542  74.0639321 109.1226359
  75.2490865  72.9876349 108.1076230  77.0614416  71.2662220 100.8065468
  77.8961307  71.7052024 100.9703028  77.1973545  70.7900873  99.9873714
  74.1105922  68.8241955 106.7542956  74.5860043  69.0169601 105.9461807
  73.1871487  68.8801141 106.5086339  68.6886138  60.8589799 105.7198790
  69.2068082  61.5950826 105.3945278  68.3341271  61.1653792 106.5545549
  68.9398733  57.2790081 101.2399686  69.2200486  56.6113270 101.8660113
  69.7249339  57.4719177 100.7274350  72.8107591  65.7007715 104.9871261
  73.7625014  65.8005813 105.0083485  72.6411041  64.9085984 105.4969346
  70.8321970  62.7863298 105.1730662  70.2371902  63.0668311 104.4777151
  70.5471667  63.2757199 105.9447403  69.9629461  76.7386225  93.9333295
  70.8960134  76.6731787  94.1366170  69.8752674  77.5742492  93.4747827
  75.2895669  68.9213835 104.1013561  75.2571989  67.9829836 104.2873245
  75.8996292  68.9997872 103.3679386  75.4390157  65.7124878 104.1471844
  74.9229206  64.9283335 103.9601773  76.3230106  65.3843595 104.3118364
  73.1000884  59.4565894 100.1067657  72.9025705  59.1480982 100.9910989
  73.7100590  60.1827533 100.2365587  81.1072219  69.9829842 103.2419598
  81.8375607  69.7215130 103.8027301  80.4979164  69.2458564 103.2821666
  79.1887516  68.1237704 103.8394049  78.4620679  67.9893669 103.2310541
  78.7734803  68.4314533 104.6450767  67.0117692  71.8427634 111.6041422
  67.9320702  72.0206233 111.7981468  66.9767275  70.8983679 111.4521121
  60.0079765  69.7528669 104.2464203  60.2265774  70.6845776 104.2652237
  60.4205538  69.3936643 105.0319007  66.9283982  60.2596754  96.2339892
  66.1184711  59.9143839  96.6095138  67.6168399  59.9504298  96.8227503
  68.8574531  59.3374801  97.8564188  69.4105569  59.7570254  98.5154211
  69.0944617  58.4110549  97.8987144  64.8807630  65.3261874 113.6366952
  64.7804357  66.2756231 113.5679043  64.6629172  64.9980113 112.7643022
  72.2353338  61.4475326  97.3642852  71.6552007  62.1060130  96.9820905
  71.9689270  60.6252671  96.9530270  70.6856904  60.8480384  99.5664173
  71.1856682  60.9596918  98.7578492  71.3292512  60.5441436 100.2064981
  64.7438900  68.7559013 112.4532014  64.2605982  69.5559373 112.6595903
  64.8299839  68.7666958 111.4999458  60.6712237  72.6463548 104.4900447
  61.6255491  72.6147490 104.4230379  60.4724761  72.1854172 105.3050673
  61.2611620  71.2164664 107.0571245  62.0804509  71.7108743 107.0806082
  61.5348427  70.2996632 107.0288813  71.0178216  63.6075416  96.4199201
  70.1304071  63.8925067  96.2019395  71.4332205  63.4469180  95.5726478
  74.3692752  63.6321937 100.1353540  75.1453142  64.1218390 100.4078157
  73.6440886  64.0579991 100.5925409  76.8065311  64.3449556 101.1927481
  77.4009801  64.1045292 100.4820789  76.8791894  63.6256687 101.8201017
  59.0262466  78.1883167 101.5070645  58.8916934  77.4283568 100.9408643
  58.6094529  78.9124067 101.0399434  74.8024045  64.9119684  97.4599610
  74.5460980  64.5116320  98.2907818  74.1776913  65.6263478  97.3349749
  79.1136383  67.6515757  99.9670902  78.5535941  67.7208947 100.7402464
  78.5079887  67.4756742  99.2470398  62.1831592  79.0852484 101.7189088
  62.0663976  80.0297917 101.6167778  61.3624038  78.7826046 102.1074887
  56.5146534  65.5502798 107.7563442  57.1605397  65.0401752 108.2450667
  56.3063685  66.2871479 108.3306867  69.0399926  72.6183645 113.2555583
  69.9091086  72.7924298 112.8942218  68.5606677  73.4378062 113.1331312
  65.0350144  59.8142842  93.5087338  65.0228814  60.7584682  93.6655609
  65.9273566  59.6312988  93.2146800  63.2086106  79.7380746 104.9345016
  64.1113353  79.7704357 105.2511511  62.9823476  78.8081197 104.9491352
  64.9639708  78.4911733 101.5955095  64.0135339  78.4913594 101.4819467
  65.2672194  77.7444467 101.0791130  68.8502264  56.4085619  97.7633275
  68.0834660  55.8544106  97.9089958  69.2612969  56.4807488  98.6247427
  60.8544025  62.6970415 111.8538456  61.7175486  62.3407220 112.0641781
  60.2809435  62.3584310 112.5413861  80.6992402  84.3272271 102.6600857
  81.3370812  84.2079019 101.9564198  80.5813245  85.2753115 102.7188810
  77.5082108  84.2799699 102.5962382  77.1700620  84.1640764 101.7082917
  78.3771876  83.8790864 102.5763388  73.3668924  86.1335176  98.5859273
  72.8033789  86.0425113  97.8175561  73.2521319  85.3135080  99.0661766
  77.9901891  85.4334551 108.5548588  77.9790532  85.0387349 107.6829091
  78.1522531  84.7000624 109.1482359  70.9133356  87.6286367 101.4243494
  71.7054648  87.2877192 101.0089793  71.1530006  87.7381342 102.3445647
  78.9468482  89.8006143  93.8973738  78.2956462  90.3860224  93.5107752
  79.7412845  90.3312338  93.9568775  72.8724110  86.8895281  94.2960872
  73.6454986  86.3424268  94.1573748  73.2249508  87.7539530  94.5075334
  74.7109152  88.2171663 107.5027772  74.4199018  89.1217294 107.3874438
  75.3466137  88.2588191 108.2171841  75.6365359  85.5948511 104.0929131
  76.2328931  85.3704534 103.3786094  75.6940331  84.8533257 104.6954579
  75.2090387  83.0487947  91.9279322  75.4615908  82.5269468  91.1662785
  74.2714947  82.8854092  92.0306006  80.2533670  82.0523725  99.7354065
  81.0396759  81.6343148  99.3844483  80.5172375  82.9569817  99.9035714
  80.4243748  87.4896575  94.4342722  79.7889581  87.5631202  95.1463627
  80.0941154  88.0790174  93.7561802  85.6542097  81.9898958 100.6387044
  86.3867269  81.4198175 100.8724873  84.8981453  81.6020559 101.0793550
  74.9286676  84.9516053  94.1303697  74.8122934  84.2760956  94.7984782
  75.0388936  84.4648427  93.3135850  77.2718217  84.4126200  97.8350386
  76.9076424  83.8856821  98.5463308  78.1285333  84.0224669  97.6616872
  83.1767518  75.7020532 105.0981653  82.8450843  76.5715943 104.8742868
  82.5813131  75.3856816 105.7775683  76.9123704  79.4416100  92.8311735
  77.0798106  80.3096336  93.1982206  76.7220873  79.6043381  91.9073024
  79.6699037  87.9033078 104.4977565  79.3699760  88.8058117 104.3893373
  79.3250097  87.6365262 105.3498718  73.1211519  84.3546875 100.5314270
  72.1962015  84.2223089 100.7391962  73.3695932  85.1341095 101.0284212
  83.0696181  80.4215619 102.1775003  82.1613058  80.3531027 101.8833764
  83.0183777  80.8987564 103.0056828  76.8912925  81.8973757  93.8158402
  76.7712550  82.3430808  94.6543882  76.1965513  82.2459075  93.2571940
  70.4820330  83.9980149 101.3658059  70.6112711  84.2514628 102.2797471
  69.8017781  84.5907857 101.0462714  74.6519817  94.6677399  97.4648533
  74.5743847  95.6185224  97.5437014  74.0481461  94.3223271  98.1223459
  77.1437047  81.8405264 110.1209900  76.3670381  82.3999184 110.1112765
  77.7827610  82.3262047 110.6424770  84.9357827  78.6232057 103.9552877
  84.2932208  78.9164590 103.3092671  84.4312756  78.5084977 104.7606073
  82.5897991  82.3695230  94.6438736  83.5015847  82.6022617  94.4686433
  82.0807638  82.9532274  94.0813814  75.3983419  84.6490718 109.6827867
  76.1398103  85.1875762 109.4062691  74.6920405  85.2757006 109.8399419
  80.8738759  86.7919858 108.2800028  81.2822115  86.3502269 107.5354661
  80.1516020  86.2172486 108.5334221  77.2269829  81.7292465 105.6533585
  78.0731024  82.1531878 105.7968234  77.1668466  81.0726089 106.3472148
  81.1967573  87.3521049 102.0352317  80.5676436  87.5166763 101.3328385
  80.8093235  87.7662658 102.8063281  85.0756805  88.2875487  99.3896681
  84.3907843  88.6674388  98.8393714  85.1600655  88.8970813 100.1228629
  80.3769274  79.3896833 107.3114759  80.1330206  80.1438894 106.7749035
  80.6529205  79.7682181 108.1462006  82.3307737  85.9335446 105.9892025
  82.5424632  86.5767205 105.3126406  82.2837485  85.0997762 105.5213955
  79.9333966  78.5453266 102.8928597  79.0718445  78.8434520 103.1845334
  79.9596401  78.7623665 101.9609629  76.7495535  87.0895457  99.3002402
  77.2133881  87.3683160  98.5107025  76.4852333  86.1878901  99.1175493
  73.6419616  86.6366938 102.2382166  74.2120973  87.0654207 101.5999650
  74.2327728  86.3549523 102.9366351  75.6864421  83.2118609  96.1091968
  76.3888465  83.6639653  96.5765894  75.3545050  82.5702428  96.7371861
  74.1344783  81.8030366 110.4843177  73.5043443  82.4846647 110.7178574
  74.0280871  81.6913447 109.5396315  69.4289755  81.4702162 101.4109101
  68.6388809  81.7259690 100.9349212  69.9201003  82.2850500 101.5161142
  83.4453565  88.8107401 104.1614382  84.2671009  88.4087588 103.8797064
  83.4415968  88.7075635 105.1130498  71.3804501  81.8346741  98.3692578
  70.5835664  81.9465435  98.8876073  71.1530093  82.1733393  97.5033468
  77.2110168  88.3591444 106.3175092  77.2754601  88.8211851 107.1533264
  76.5021092  87.7288809 106.4457402  67.7127458  81.7232652 103.8424092
  67.9635497  82.6079662 104.1081668  68.2487007  81.5437254 103.0699184
  91.5359558  85.1546149 100.5099353  90.7823266  84.5853548 100.3543358
  91.6707099  85.1208814 101.4569988  76.9258186  90.0259552  96.1854073
  76.7903861  90.8711087  96.6138921  77.4667998  90.2278829  95.4220007
  73.4125526  76.1051132 112.8468428  73.0192471  75.5517330 113.5216072
  74.2291666  76.4161710 113.2374946  70.3787583  87.5434990  96.7581998
  70.8912104  88.3378240  96.9087563  71.0310296  86.8461280  96.6915599
  72.1882468  90.6600746  98.8404751  72.3649096  91.5818711  98.6525735
  72.9839302  90.3459165  99.2699131  76.3293487  77.5209011 110.4388685
  77.0703200  78.1216164 110.3593147  76.5611409  76.7786648 109.8806727
  71.4734825  82.7065378 108.7166914  71.3588340  81.8050635 109.0174013
  70.6179342  82.9529075 108.3651731  78.5526662  90.6483118 110.3154415
  78.1090517  89.8619497 109.9975319  79.2143876  90.8362269 109.6498306
  73.3113784  92.1778920 104.8415093  73.8621209  92.0495983 104.0692087
  72.4725259  92.4773809 104.4909986  80.6507900  90.9285918 108.3435816
  80.6326376  91.7494799 107.8516085  81.5727820  90.8039993 108.5685957
  77.1080955  88.4430048 109.1859324  77.6409291  87.6818336 108.9558632
  76.5795036  88.1503699 109.9283479  80.2750650  73.5490114 104.7152966
  79.9314919  74.4391755 104.6392077  80.6429612  73.3591771 103.8522551
  68.3436500  85.8723644  97.5341568  69.1811722  86.2820652  97.3175276
  68.5214768  84.9323086  97.5041762  80.2400932  83.5398725  93.2225401
  79.7247556  84.3103329  93.4613789  79.9678241  82.8663861  93.8458463
  77.8248043  78.3848426  98.2810640  76.9689640  77.9955276  98.1016278
  78.2374995  78.4640386  97.4210425  79.3547190  75.9194769 102.6802199
  78.8511986  75.8824904 101.8670005  79.6477797  76.8287511 102.7398856
  75.5990076  76.0033498 101.6868381  76.4643073  75.8076307 101.3274271
  75.6667585  75.7743850 102.6137738  85.2135206  86.2931079  95.1578575
  84.4364649  85.9542239  94.7133737  85.8926687  86.2983703  94.4833540
  80.0287235  81.4125817  95.0485183  79.7237371  81.7271966  95.8995326
  80.9817678  81.4907237  95.0912516  78.4733667  87.5716040  96.6978136
  77.9455029  86.8368800  96.3851374  77.9721170  88.3490716  96.4518105
  83.4526513  85.7665061 101.8145183  82.7950188  86.4564322 101.9025311
  84.2566913  86.1561493 102.1579169  73.2052395  78.2335706  99.0584748
  73.7796147  78.0110888  98.3257941  73.7923377  78.3024401  99.8113349
  82.2631972  84.1209433  99.8649125  82.7763854  84.7539425 100.3670834
  82.9133196  83.5210629  99.4992485  73.5321982  80.2640167  93.0780633
  72.6959294  80.6014854  93.3989908  73.3926752  80.1289147  92.1407770
  75.5075063  75.1076955  97.7859817  74.8539475  74.7925972  97.1616432
  75.4655537  74.4852696  98.5119640  76.6186267  85.3896250  89.7013110
  75.7113329  85.1585504  89.9004259  77.1157299  84.5933870  89.8887091
  79.5254346  94.0993758  92.6209796  78.8516045  94.4025454  93.2294754
  79.9120168  94.9022838  92.2715253  78.7412803  81.5958889 102.1107465
  77.8235364  81.8173836 101.9529153  79.1572947  81.6705199 101.2519172
  79.5247851  82.9950305  97.2410145  80.2719670  83.5071702  96.9317267
  79.7939440  82.6734357  98.1014539  77.7974501  85.4908845  94.2237100
  76.8885720  85.2067878  94.3209569  77.8269585  85.9107924  93.3640406
  83.0293768  89.1015435  97.9928267  82.5756095  88.2606345  98.0493458
  82.3987735  89.7376833  98.3303047  81.9726688  80.0307421  99.2228935
  81.2349445  79.5184807  99.5539177  82.2253461  79.5907802  98.4112212
  81.4726708  90.9391931  98.9278085  81.7649682  91.4996989  98.2090451
  81.9825328  91.2320492  99.6831244  82.0738315  72.8083673  99.8170704
  82.3797192  71.9481036  99.5296619  82.7990920  73.4001293  99.6169698
  68.3662671  83.2114359  98.2052302  68.1687071  82.6183720  97.4803368
  67.8109335  82.9066570  98.9228241  76.3459395  83.1037466 100.3246895
  76.4008005  82.1511302 100.2489372  75.5350597  83.2596905 100.8088193
  77.4950589  87.0317589  91.5625178  77.0570019  86.3153448  91.1030816
  78.2361030  87.2593704  91.0010270  74.2851755  81.7214526  98.0837274
  73.4719620  82.0208696  98.4902466  74.7810749  81.3270214  98.8011756
  76.4360333  91.7172283 100.0171539  76.3936512  91.9433129  99.0880071
  77.3523032  91.4835657 100.1657340  79.8825967  82.1856350 106.9152168
  80.2375354  82.4127823 107.7746633  80.5298098  82.5174727 106.2929423
  85.6123703  85.3074786  97.6201497  85.4741602  85.4976382  96.6922686
  85.2559922  86.0694169  98.0769548  73.7765830  79.2932881 103.6998509
  74.4165209  79.1521640 103.0021472  72.9443360  79.0067395 103.3237111
  85.6393083  87.3751313 102.6312768  86.0729590  87.2826602 103.4795822
  86.3524664  87.3508813 101.9932784  74.5526134  88.5935312  99.8133501
  75.3466732  88.0985632  99.6116076  73.8417826  88.0653175  99.4501207
  79.3720978  90.9753407 104.1645869  79.4258000  91.5444343 104.9323585
  78.5035759  91.1455292 103.7999906  70.8608897  82.7378393  95.8893254
  69.9306485  82.6762849  96.1063216  70.9566369  82.2154346  95.0929895
  70.7794446  79.2633206  98.4771496  71.0401263  80.1778539  98.3680656
  71.6011618  78.7957649  98.6268108  72.2519371  80.6770963 105.6470320
  72.9242425  80.4688325 104.9982969  71.4249158  80.4793049 105.2075552
  86.5008633  87.4175014 105.1645654  86.6944523  88.3220824 105.4104929
  86.4009251  86.9582433 105.9984239  78.1544943  77.3032904 107.6635981
  77.5072858  78.0022854 107.5700457  78.9245959  77.7369048 108.0312229
  81.5623741  87.5681756 110.7386534  81.4109248  87.3392308 109.8216618
  81.5528421  88.5252358 110.7517879  78.3309078  85.1413669 105.7232801
  79.2601138  85.2924829 105.5501768  77.9100108  85.2297690 104.8681447
  77.1297410  89.1664334 103.4931338  76.9908495  88.7983118 104.3657276
  76.3412006  89.6811973 103.3215296  77.7245561  94.2673430  94.8356875
  77.8997317  93.7961473  95.6502498  77.0378350  94.8939196  95.0638136
  78.6802625  88.5445936 100.8820176  78.3452457  88.5046706 101.7777826
  78.1806570  87.8790652 100.4090586  72.6546869  83.9513566 106.4072757
  72.5166667  83.2193805 107.0084296  73.5651792  83.8622466 106.1256945
  81.6161816  85.8901971  91.1557236  80.9990987  85.1648799  91.0590288
  81.1478305  86.6511331  90.8124310  75.2829169  83.6633526 105.8956437
  75.9928788  83.0226718 105.8543055  75.2398477  83.9146420 106.8182618
  83.2715948  90.6000879 108.8163016  83.2128494  89.9160099 108.1493599
  83.6735466  91.3419869 108.3643642  73.9958103  80.6498743 107.7152076
  73.4595460  80.1989482 108.3673673  73.4074812  80.7844652 106.9722541
  72.2906647  97.4162793 101.6096735  72.5303245  98.0481317 102.2875754
  71.4475843  97.0650833 101.8962094  73.4060362  80.1087395  90.2778540
  72.5289829  79.9876196  89.9140787  73.8818115  79.3173473  90.0257429
  83.2733355  88.5640463 107.0476996  82.3860134  88.2266385 107.1703395
  83.8431906  87.8323494 107.2845761  64.9262502  84.8964555 100.3720047
  65.6133542  84.5826285  99.7841063  64.7710631  85.8005919 100.0987299
  69.7297224  79.7854751 104.8005071  69.6455413  79.1780421 104.0655481
  68.9079931  80.2763769 104.8014567  76.8034509  93.2241915 104.0138239
  76.7304680  94.0296887 104.5257544  76.3611902  93.4233881 103.1886260
  76.5924288  92.4613685  97.5241061  75.8091810  93.0035365  97.6179285
  77.2917033  92.9787665  97.9235302  79.9020938  78.2708315 100.1675266
  80.3989638  77.5178277  99.8476336  79.1307920  78.3072631  99.6018475
  87.7550696  83.9748680 101.8093557  87.7440572  84.8573396 101.4387491
  86.8868075  83.6220231 101.6148095  79.2633192  93.1228749 106.1696398
  79.9761164  93.7576214 106.0972299  78.7723221  93.2192615 105.3536400
  80.9850719  87.0280002  97.7413689  80.0506998  87.1481464  97.5718394
  81.1627388  86.1252469  97.4773699  76.4855907  80.4125698  99.8946951
  76.1153695  79.8596738 100.5827856  76.9815000  79.8083831  99.3421951
  84.3723270  82.8697321  98.2763724  84.8383723  83.7025313  98.2024026
  84.8230771  82.4042303  98.9808982  74.3145106  90.8723193 106.9901969
  75.0154565  91.5059676 107.1431363  73.8440221  91.2137924 106.2297608
  82.4399502  89.2141142  95.2749876  82.7159345  89.0997737  96.1843750
  81.5704000  88.8158627  95.2362049  82.3439933  75.2377908 102.3154625
  81.4303013  75.4682135 102.4836832  82.7733035  75.3216352 103.1668657
  82.1146392  83.4267800 104.8154519  81.4617842  83.6743708 104.1606972
  82.4926772  82.6131938 104.4816996  79.0753566  93.4627493  98.9182689
  79.2575960  92.6449149  99.3810441  79.8986552  93.6795186  98.4807579
  79.4095731  92.3895678  96.1797738  79.9383497  91.8788133  95.5667900
  79.6723951  92.0738209  97.0443271  78.1633965  84.1687611 111.3020556
  77.4874602  84.0681741 111.9722931  78.9861599  84.0126825 111.7656553
  69.9112824  90.4059548 103.9233071  70.4966261  89.6603236 104.0560975
  69.7137662  90.7163504 104.8069735  72.7651479  93.4410795  98.9395514
  72.0961854  93.9256923  98.4559554  72.6264349  93.6880016  99.8538892
  64.5030478  82.9765148 102.6437514  64.5414578  82.4428739 103.4374632
  63.9970771  82.4500353 102.0248492  76.9056748  95.4754539 105.5378172
  77.4575056  95.6386160 106.3027257  77.2462941  96.0658976 104.8658197
  71.8821241  77.8229688 106.1400057  71.9462567  78.6844519 105.7277454
  71.8188361  77.2103690 105.4072415  71.3573513  79.8952821 109.7873091
  71.9845552  79.5129898 110.4010615  70.5001432  79.6767023 110.1528783
  68.1339056  81.7029250  95.7191446  68.4292497  80.7939929  95.6658499
  67.2327092  81.6816990  95.3972448  80.0425135  93.4236514 102.5241854
  79.9176274  92.6226254 102.0152800  80.7004226  93.9182708 102.0355824
  71.6633303  79.7785247 101.7018994  70.9419889  80.3921214 101.5626468
  72.4526559  80.3143012 101.6235640  82.1060043  91.2245534 104.1521404
  81.1590379  91.1050885 104.0799731  82.4542816  90.3368032 104.2347666
  74.4659617  77.1139673 107.9759646  74.9894018  77.3601970 108.7385955
  74.2471950  77.9459708 107.5562783  69.8626898  79.3843348  95.8430771
  69.5339604  78.5040727  95.6605877  70.2166268  79.3291016  96.7307160
  79.1106477  91.0198251 100.3525756  78.9631439  90.0914958 100.5333326
  79.9359970  91.0418341  99.8682832  72.9768721  79.6716318  96.2106249
  73.3164793  80.2002239  95.4884857  73.4240841  80.0096724  96.9864815
  82.7140598  91.8426809 101.4390629  83.6387146  91.6369671 101.3015080
  82.5455902  91.5943210 102.3479971  75.6712162  78.0553368 105.6609317
  75.3308982  77.2561181 106.0629996  74.9651168  78.3555079 105.0886150
  76.3228633  75.1402681 104.1136640  77.1454703  74.6663159 103.9915530
  76.5666697  75.9193164 104.6135326  74.9636868  78.1690939  94.4099541
  75.6845230  78.5472192  93.9063258  74.3402172  78.8879816  94.5134519
  79.1067991  78.8736088  95.3457874  79.3231605  79.7560726  95.0446702
  78.6262058  78.4822302  94.6163516  73.8467212  81.8321801 101.9228618
  73.7011793  82.1462104 102.8152900  73.3692416  82.4506702 101.3699517
  75.7063595  78.8224349 101.9709508  75.6925164  77.9265443 101.6341806
  76.4236023  78.8295013 102.6047794  77.5589726  79.2561690 104.0162635
  77.3007504  80.1778760 104.0146966  77.0274766  78.8592124 104.7063099
  82.5035915  92.3612477  96.7952721  82.6772792  91.7958899  96.0426573
  82.9964806  93.1613372  96.6132211  68.3212874  84.3727146 104.8616279
  67.7766342  85.1486954 104.9936554  69.1992224  84.7197950 104.7035401
  75.1100491  77.7038730  97.2397078  75.2316402  76.7755376  97.4387965
  74.8202533  77.7177416  96.3275393  77.9791681  75.3893640 100.3763798
  78.0013378  75.4532973  99.4215777  78.3959740  74.5498149 100.5704304
  88.3575306  85.1248900  98.4143020  88.8006452  84.3756225  98.0162144
  87.4801816  85.1159036  98.0316752  83.4911087  91.6779241  93.8949619
  84.1861992  92.2985934  94.1136934  83.8334237  90.8274592  94.1701997
  69.1078896  83.4997042 107.7546436  68.3660632  83.6479677 108.3411067
  68.7871641  83.7605308 106.8913186  85.3902510  89.1278947  95.4236950
  85.9153834  89.4666219  94.6986270  85.3024863  88.1925962  95.2400084
  77.0522559  93.0413020 107.5526826  77.3609685  92.7962167 108.4249526
  77.8498041  93.2459659 107.0645697  77.0743171  95.1950930  99.7832203
  76.6348161  94.7027309 100.4765060  77.8251288  94.6523898  99.5424278
  69.5535510  91.3862471  99.7856831  70.3793530  91.0866243  99.4055474
  69.2029562  90.6170093 100.2346620  74.5217043  90.7388939 101.8554505
  73.8997052  90.0759644 101.5556732  75.1921910  90.7650071 101.1728152
  67.7544115  89.3048797 100.7445765  66.9176023  88.8770972 100.5629766
  67.7267760  89.4981241 101.6816556  74.5941571  79.2170727 111.4487011
  74.6429726  80.0932850 111.0664780  75.1364085  78.6748120 110.8758654
  85.1994291  86.6104317 108.0420876  85.2492296  86.4454324 108.9836399
  85.0908215  85.7431576 107.6518757  74.0830550  89.2892862  95.3312965
  74.2318670  89.9728327  94.6779638  74.8896993  89.2697952  95.8462421
  82.4898054  82.5935245 109.3580183  83.3907916  82.4541710 109.0664181
  82.5646028  82.7589699 110.2978360  76.8240859  79.9702099 108.2033369
  75.9544168  80.2635665 107.9315958  77.0600339  80.5542544 108.9240633
  86.7012488  89.0301258 108.2862898  86.4097296  89.3931239 109.1226359
  86.0884619  88.3168266 108.1076230  87.9008170  86.5954138 100.8065468
  88.7355062  87.0343942 100.9703028  88.0367299  86.1192791  99.9873714
  84.9499676  84.1533873 106.7542956  85.4253798  84.3461519 105.9461807
  84.0265242  84.2093059 106.5086339  71.8383183  85.3158040  96.3374034
  71.5929225  84.4120370  96.5354244  72.0079098  85.3175190  95.3953512
  79.5279893  76.1881716 105.7198790  80.0461837  76.9242743 105.3945278
  79.1735026  76.4945710 106.5545549  71.1078830  81.0486398  93.8360195
  70.4148075  81.1230753  93.1800231  70.8630582  80.2846741  94.3581712
  79.7792487  72.6081999 101.2399686  80.0594241  71.9405188 101.8660113
  80.5643094  72.8011094 100.7274350  77.5825956  91.7840993  92.8024712
  77.0099923  92.4031180  92.3495184  78.1558749  92.3340354  93.3364634
  83.6501345  81.0299633 104.9871261  84.6018768  81.1297731 105.0083485
  83.4804796  80.2377901 105.4969346  81.6715725  78.1155216 105.1730662
  81.0765657  78.3960229 104.4777151  81.3865422  78.6049117 105.9447403
  80.8023215  92.0678143  93.9333295  81.7353888  92.0023705  94.1366170
  80.7146428  92.9034410  93.4747827  83.4311232  91.3844013  90.8937242
  83.3524863  91.0503877  91.7873000  84.2520899  91.8765781  90.8928715
  86.1289423  84.2505753 104.1013561  86.0965743  83.3121753 104.2873245
  86.7390047  84.3289789 103.3679386  77.9672754  83.1201806  90.1440765
  78.9131859  82.9908014  90.2129183  77.5886999  82.3816467  90.6210193
  86.2783912  81.0416796 104.1471844  85.7622960  80.2575253 103.9601773
  87.1623860  80.7135513 104.3118364  83.9394639  74.7857812 100.1067657
  83.7419460  74.4772900 100.9910989  84.5494344  75.5119450 100.2365587
  91.9465973  85.3121759 103.2419598  92.6769361  85.0507048 103.8027301
  91.3372918  84.5750481 103.2821666  90.0281270  83.4529622 103.8394049
  89.3014434  83.3185587 103.2310541  89.6128557  83.7606451 104.6450767
  77.8511447  87.1719552 111.6041422  78.7714456  87.3498151 111.7981468
  77.8161030  86.2275597 111.4521121  76.1515671  81.0451782  90.0795650
  75.2447127  80.7484895  90.1558364  76.4291652  80.7481600  89.2129936
  67.0693612  82.3658145 100.5294697  66.7496396  81.5123454 100.2369071
  66.5227040  82.5806723 101.2852664  70.8473519  85.0820586 104.2464203
  71.0659529  86.0137694 104.2652237  71.2599293  84.7228561 105.0319007
  77.7677737  75.5888672  96.2339892  76.9578465  75.2435757  96.6095138
  78.4562154  75.2796215  96.8227503  79.6968285  74.6666718  97.8564188
  80.2499324  75.0862172  98.5154211  79.9338372  73.7402467  97.8987144
  75.7201384  80.6553792 113.6366952  75.6198111  81.6048149 113.5679043
  75.5022926  80.3272031 112.7643022  66.9381872  85.9861057 102.4987818
  66.2445343  85.5715010 101.9857773  67.6854863  86.0281593 101.9021237
  83.0747092  76.7767244  97.3642852  82.4945761  77.4352048  96.9820905
  82.8083025  75.9544588  96.9530270  81.5250659  76.1772301  99.5664173
  82.0250437  76.2888836  98.7578492  82.1686267  75.8733354 100.2064981
  75.5832654  84.0850931 112.4532014  75.0999736  84.8851291 112.6595903
  75.6693593  84.0958876 111.4999458  68.8518614  85.9179311 100.3753833
  68.8289302  86.0166998  99.4235716  69.1619251  86.7644461 100.6970999
  71.5105992  87.9755466 104.4900447  72.4649245  87.9439408 104.4230379
  71.3118516  87.5146089 105.3050673  72.1005374  86.5456582 107.0571245
  72.9198263  87.0400660 107.0806082  72.3742182  85.6288550 107.0288813
  81.8571970  78.9367334  96.4199201  80.9697825  79.2216985  96.2019395
  82.2725959  78.7761097  95.5726478  85.2086506  78.9613855 100.1353540
  85.9846897  79.4510307 100.4078157  84.4834641  79.3871909 100.5925409
  87.6459065  79.6741474 101.1927481  88.2403556  79.4337210 100.4820789
  87.7185649  78.9548605 101.8201017  69.8656221  93.5175085 101.5070645
  69.7310689  92.7575486 100.9408643  69.4488283  94.2415985 101.0399434
  81.0015184  88.7012009  90.5147221  81.7051034  88.9062011  91.1304876
  80.2777833  89.2688771  90.7796304  81.8312994  84.4521870  96.6349491
  81.7748195  84.9090421  95.7957123  82.3841336  83.6912555  96.4572334
  85.6417800  80.2411602  97.4599610  85.3854734  79.8408237  98.2907818
  85.0170668  80.9555396  97.3349749  89.9530138  82.9807675  99.9670902
  89.3929696  83.0500864 100.7402464  89.3473641  82.8048660  99.2470398
  73.0225347  94.4144402 101.7189088  72.9057731  95.3589835 101.6167778
  72.2017793  94.1117964 102.1074887  82.9101881  89.1394538  92.5645681
  83.7447485  88.7075736  92.3823156  82.7486224  88.9676552  93.4922575
  82.5647773  85.6426651  93.9302020  82.5096577  85.4770923  92.9890464
  81.9393829  86.3502684  94.0864210  67.3540288  80.8794716 107.7563442
  67.9999152  80.3693670 108.2450667  67.1457439  81.6163397 108.3306867
  75.8743899  75.1434760  93.5087338  75.8622569  76.0876600  93.6655609
  76.7667321  74.9604906  93.2146800  74.0479861  95.0672664 104.9345016
  74.9507107  95.0996274 105.2511511  73.8217231  94.1373115 104.9491352
  75.8033463  93.8203651 101.5955095  74.8529094  93.8205512 101.4819467
  76.1065949  93.0736385 101.0791130  79.6896018  71.7377537  97.7633275
  78.9228414  71.1836023  97.9089958  80.1006723  71.8099406  98.6247427
  71.6937779  78.0262333 111.8538456  72.5569241  77.6699137 112.0641781
  71.1203190  77.6876227 112.5413861  88.3475863  99.6091617 102.5962382
  88.0094374  99.4932682 101.7082917  89.2165631  99.2082782 102.5763388
  84.2062678 101.4627093  98.5859273  83.6427543 101.3717030  97.8175561
  84.0915073 100.6426998  99.0661766  81.7527110 102.9578285 101.4243494
  82.5448402 102.6169110 101.0089793  81.9923760 103.0673260 102.3445647
  89.7862237 105.1298061  93.8973738  89.1350217 105.7152142  93.5107752
  90.5806600 105.6604256  93.9568775  83.7117864 102.2187198  94.2960872
  84.4848740 101.6716185  94.1573748  84.0643263 103.0831448  94.5075334
  86.0484142  98.3779864  91.9279322  86.3009663  97.8561386  91.1662785
  85.1108701  98.2146010  92.0306006  91.0927425  97.3815643  99.7354065
  91.8790514  96.9635066  99.3844483  91.3566129  98.2861735  99.9035714
  91.2637502 102.8188493  94.4342722  90.6283335 102.8923120  95.1463627
  90.9334908 103.4082092  93.7561802  96.4935852  97.3190876 100.6387044
  97.2261024  96.7490093 100.8724873  95.7375208  96.9312476 101.0793550
  85.7680431 100.2807970  94.1303697  85.6516689  99.6052874  94.7984782
  85.8782691  99.7940344  93.3135850  88.1111972  99.7418118  97.8350386
  87.7470179  99.2148738  98.5463308  88.9679087  99.3516587  97.6616872
  94.0161272  91.0312450 105.0981653  93.6844597  91.9007861 104.8742868
  93.4206886  90.7148734 105.7775683  87.7517459  94.7708017  92.8311735
  87.9191861  95.6388254  93.1982206  87.5614628  94.9335299  91.9073024
  83.9605273  99.6838793 100.5314270  83.0355770  99.5515007 100.7391962
  84.2089686 100.4633012 101.0284212  87.7306679  97.2265675  93.8158402
  87.6106305  97.6722725  94.6543882  87.0359268  97.5750992  93.2571940
  81.3214084  99.3272066 101.3658059  81.4506465  99.5806545 102.2797471
  80.6411536  99.9199774 101.0462714  85.4913572 109.9969316  97.4648533
  85.4137601 110.9477142  97.5437014  84.8875215 109.6515189  98.1223459
  93.4291746  97.6987148  94.6438736  94.3409602  97.9314535  94.4686433
  92.9201393  98.2824192  94.0813814  90.7727720  93.8745184 102.8928597
  89.9112199  94.1726437 103.1845334  90.7990155  94.0915583 101.9609629
  87.5889290 102.4187374  99.3002402  88.0527635 102.6975077  98.5107025
  87.3246088 101.5170819  99.1175493  84.4813371 101.9658856 102.2382166
  85.0514728 102.3946124 101.5999650  85.0721483 101.6841441 102.9366351
  86.5258176  98.5410527  96.1091968  87.2282219  98.9931570  96.5765894
  86.1938804  97.8994346  96.7371861  80.2683510  96.7994079 101.4109101
  79.4782564  97.0551608 100.9349212  80.7594757  97.6142417 101.5161142
  82.2198255  97.1638659  98.3692578  81.4229418  97.2757353  98.8876073
  81.9923847  97.5025311  97.5033468  78.5521213  97.0524570 103.8424092
  78.8029251  97.9371580 104.1081668  79.0880761  96.8729171 103.0699184
  87.7651940 105.3551469  96.1854073  87.6297615 106.2003005  96.6138921
  88.3061753 105.5570747  95.4220007  81.2181338 102.8726907  96.7581998
  81.7305858 103.6670158  96.9087563  81.8704051 102.1753198  96.6915599
  83.0276223 105.9892664  98.8404751  83.2042851 106.9110628  98.6525735
  83.8233056 105.6751083  99.2699131  91.1144404  88.8782031 104.7152966
  90.7708673  89.7683673 104.6392077  91.4823367  88.6883689 103.8522551
  79.1830255 101.2015562  97.5341568  80.0205477 101.6112570  97.3175276
  79.3608522 100.2615004  97.5041762  91.0794687  98.8690642  93.2225401
  90.5641310  99.6395247  93.4613789  90.8071995  98.1955779  93.8458463
  88.6641798  93.7140343  98.2810640  87.8083394  93.3247194  98.1016278
  89.0768750  93.7932304  97.4210425  90.1940944  91.2486686 102.6802199
  89.6905740  91.2116822 101.8670005  90.4871551  92.1579429 102.7398856
  86.4383830  91.3325416 101.6868381  87.3036827  91.1368225 101.3274271
  86.5061339  91.1035768 102.6137738  96.0528961 101.6222997  95.1578575
  95.2758404 101.2834157  94.7133737  96.7320442 101.6275620  94.4833540
  90.8680990  96.7417734  95.0485183  90.5631125  97.0563884  95.8995326
  91.8211432  96.8199154  95.0912516  89.3127422 102.9007958  96.6978136
  88.7848783 102.1660717  96.3851374  88.8114924 103.6782634  96.4518105
  84.0446149  93.5627624  99.0584748  84.6189901  93.3402806  98.3257941
  84.6317132  93.6316319  99.8113349  93.1025727  99.4501351  99.8649125
  93.6157608 100.0831343 100.3670834  93.7526950  98.8502546  99.4992485
  84.3715736  95.5932085  93.0780633  83.5353049  95.9306772  93.3989908
  84.2320506  95.4581065  92.1407770  86.3468817  90.4368873  97.7859817
  85.6933229  90.1217890  97.1616432  86.3049291  89.8144613  98.5119640
  87.4580022 100.7188168  89.7013110  86.5507084 100.4877422  89.9004259
  87.9551054  99.9225787  89.8887091  90.3648101 109.4285675  92.6209796
  89.6909800 109.7317372  93.2294754  90.7513923 110.2314756  92.2715253
  89.5806557  96.9250807 102.1107465  88.6629119  97.1465754 101.9529153
  89.9966701  96.9997117 101.2519172  90.3641605  98.3242222  97.2410145
  91.1113424  98.8363619  96.9317267  90.6333195  98.0026275  98.1014539
  88.6368255 100.8200763  94.2237100  87.7279475 100.5359796  94.3209569
  88.6663339 101.2399842  93.3640406  92.8120442  95.3599338  99.2228935
  92.0743199  94.8476725  99.5539177  93.0647216  94.9199720  98.4112212
  92.9132070  88.1375590  99.8170704  93.2190946  87.2772954  99.5296619
  93.6384674  88.7293211  99.6169698  79.2056426  98.5406277  98.2052302
  79.0080826  97.9475638  97.4803368  78.6503090  98.2358487  98.9228241
  87.1853149  98.4329384 100.3246895  87.2401759  97.4803220 100.2489372
  86.3744351  98.5888823 100.8088193  88.3344343 102.3609507  91.5625178
  87.8963773 101.6445366  91.1030816  89.0754784 102.5885621  91.0010270
  85.1245509  97.0506443  98.0837274  84.3113375  97.3500614  98.4902466
  85.6204504  96.6562132  98.8011756  96.4517458 100.6366704  97.6201497
  96.3135357 100.8268300  96.6922686  96.0953677 101.3986086  98.0769548
  84.6159584  94.6224799 103.6998509  85.2558963  94.4813558 103.0021472
  83.7837115  94.3359312 103.3237111  85.3919888 103.9227229  99.8133501
  86.1860486 103.4277549  99.6116076  84.6811580 103.3945092  99.4501207
  81.7002651  98.0670311  95.8893254  80.7700240  98.0054766  96.1063216
  81.7960123  97.5446264  95.0929895  81.6188201  94.5925124  98.4771496
  81.8795018  95.5070457  98.3680656  82.4405373  94.1249566  98.6268108
  83.0913126  96.0062881 105.6470320  83.7636179  95.7980243 104.9982969
  82.2642912  95.8084967 105.2075552  88.5639316 109.5965348  94.8356875
  88.7391072 109.1253391  95.6502498  87.8772104 110.2231114  95.0638136
  92.4555571 101.2193888  91.1557236  91.8384741 100.4940716  91.0590288
  91.9872059 101.9803249  90.8124310  84.2454117  95.4379313  90.2778540
  83.3683583  95.3168113  89.9140787  84.7211870  94.6465391  90.0257429
  75.7656257 100.2256472 100.3720047  76.4527297  99.9118202  99.7841063
  75.6104386 101.1297837 100.0987299  80.5690979  95.1146669 104.8005071
  80.4849168  94.5072338 104.0655481  79.7473685  95.6055687 104.8014567
  87.4318043 107.7905603  97.5241061  86.6485565 108.3327283  97.6179285
  88.1310788 108.3079583  97.9235302  90.7414693  93.6000232 100.1675266
  91.2383392  92.8470195  99.8476336  89.9701674  93.6364549  99.6018475
  91.8244474 102.3571920  97.7413689  90.8900752 102.4773382  97.5718394
  92.0021142 101.4544386  97.4773699  87.3249662  95.7417615  99.8946951
  86.9547449  95.1888656 100.5827856  87.8208754  95.1375749  99.3421951
  95.2117025  98.1989239  98.2763724  95.6777477  99.0317230  98.2024026
  95.6624525  97.7334220  98.9808982  93.2793256 104.5433060  95.2749876
  93.5553100 104.4289655  96.1843750  92.4097755 104.1450545  95.2362049
  93.1833688  90.5669826 102.3154625  92.2696767  90.7974053 102.4836832
  93.6126789  90.6508270 103.1668657  90.2489486 107.7187596  96.1797738
  90.7777252 107.2080051  95.5667900  90.5117705 107.4030126  97.0443271
  75.3424233  98.3057066 102.6437514  75.3808332  97.7720656 103.4374632
  74.8364526  97.7792271 102.0248492  82.7214995  93.1521606 106.1400057
  82.7856322  94.0136437 105.7277454  82.6582116  92.5395608 105.4072415
  78.9732811  97.0321168  95.7191446  79.2686252  96.1231846  95.6658499
  78.0720846  97.0108907  95.3972448  82.5027058  95.1077164 101.7018994
  81.7813643  95.7213132 101.5626468  83.2920313  95.6434929 101.6235640
  80.7020652  94.7135265  95.8430771  80.3733358  93.8332644  95.6605877
  81.0560023  94.6582934  96.7307160  83.8162475  95.0008235  96.2106249
  84.1558548  95.5294157  95.4884857  84.2634596  95.3388641  96.9864815
  86.5105916  93.3845286 105.6609317  86.1702736  92.5853099 106.0629996
  85.8044922  93.6846997 105.0886150  87.1622388  90.4694598 104.1136640
  87.9848457  89.9955077 103.9915530  87.4060451  91.2485082 104.6135326
  85.8030622  93.4982857  94.4099541  86.5238985  93.8764110  93.9063258
  85.1795927  94.2171734  94.5134519  89.9461745  94.2028006  95.3457874
  90.1625360  95.0852644  95.0446702  89.4655812  93.8114219  94.6163516
  84.6860967  97.1613719 101.9228618  84.5405547  97.4754022 102.8152900
  84.2086170  97.7798619 101.3699517  86.5457350  94.1516267 101.9709508
  86.5318918  93.2557360 101.6341806  87.2629778  94.1586931 102.6047794
  88.3983480  94.5853607 104.0162635  88.1401258  95.5070678 104.0146966
  87.8668521  94.1884042 104.7063099  79.1606629  99.7019063 104.8616279
  78.6160097 100.4778871 104.9936554  80.0385979 100.0489868 104.7035401
  85.9494246  93.0330647  97.2397078  86.0710157  92.1047293  97.4387965
  85.6596288  93.0469333  96.3275393  88.8185436  90.7185558 100.3763798
  88.8407133  90.7824891  99.4215777  89.2353495  89.8790066 100.5704304
  94.3304842 107.0071159  93.8949619  95.0255746 107.6277851  94.1136934
  94.6727992 106.1566510  94.1701997  96.2296265 104.4570864  95.4236950
  96.7547589 104.7958137  94.6986270  96.1418617 103.5217880  95.2400084
  80.3929264 106.7154388  99.7856831  81.2187284 106.4158160  99.4055474
  80.0423316 105.9462011 100.2346620  78.5937869 104.6340715 100.7445765
  77.7569778 104.2062889 100.5629766  78.5661515 104.8273158 101.6816556
  84.9224304 104.6184780  95.3312965  85.0712425 105.3020244  94.6779638
  85.7290748 104.5989870  95.8462421  82.6776937 100.6449958  96.3374034
  82.4322979  99.7412288  96.5354244  82.8472852 100.6467108  95.3953512
  90.3673647  91.5173634 105.7198790  90.8855591  92.2534661 105.3945278
  90.0128780  91.8237627 106.5545549  81.9472585  96.3778315  93.8360195
  81.2541830  96.4522670  93.1800231  81.7024337  95.6138659  94.3581712
  90.6186241  87.9373917 101.2399686  90.8987995  87.2697106 101.8660113
  91.4036848  88.1303012 100.7274350  88.4219710 107.1132910  92.8024712
  87.8493677 107.7323098  92.3495184  88.9952504 107.6632272  93.3364634
  91.6416970 107.3970061  93.9333295  92.5747643 107.3315622  94.1366170
  91.5540183 108.2326327  93.4747827  94.2704986 106.7135931  90.8937242
  94.1918618 106.3795795  91.7873000  95.0914653 107.2057699  90.8928715
  88.8066508  98.4493723  90.1440765  89.7525613  98.3199931  90.2129183
  88.4280753  97.7108385  90.6210193  94.7788393  90.1149729 100.1067657
  94.5813214  89.8064817 100.9910989  95.3888099  90.8411368 100.2365587
  86.9909426  96.3743700  90.0795650  86.0840881  96.0776812  90.1558364
  87.2685407  96.0773518  89.2129936  77.9087366  97.6950063 100.5294697
  77.5890150  96.8415371 100.2369071  77.3620794  97.9098641 101.2852664
  81.6867274 100.4112504 104.2464203  81.9053283 101.3429612 104.2652237
  82.0993047 100.0520478 105.0319007  88.6071491  90.9180589  96.2339892
  87.7972220  90.5727674  96.6095138  89.2955908  90.6088133  96.8227503
  90.5362040  89.9958636  97.8564188  91.0893078  90.4154090  98.5154211
  90.7732126  89.0694384  97.8987144  85.7608210  93.2330635  90.2207629
  86.6227374  93.5585533  90.4803447  85.9458554  92.4462131  89.7080695
  77.7775626 101.3152974 102.4987818  77.0839097 100.9006927 101.9857773
  78.5248617 101.3573511 101.9021237  93.9140847  92.1059161  97.3642852
  93.3339516  92.7643965  96.9820905  93.6476779  91.2836506  96.9530270
  92.3644413  91.5064219  99.5664173  92.8644191  91.6180754  98.7578492
  93.0080021  91.2025272 100.2064981  79.6912369 101.2471228 100.3753833
  79.6683057 101.3458916  99.4235716  80.0013005 102.0936379 100.6970999
  92.6965725  94.2659252  96.4199201  91.8091580  94.5508902  96.2019395
  93.1119714  94.1053015  95.5726478  96.0480261  94.2905773 100.1353540
  96.8240651  94.7802225 100.4078157  95.3228395  94.7163827 100.5925409
  98.4852820  95.0033392 101.1927481  99.0797310  94.7629128 100.4820789
  98.5579403  94.2840522 101.8201017  91.8408938 104.0303926  90.5147221
  92.5444788 104.2353929  91.1304876  91.1171587 104.5980688  90.7796304
  92.6706749  99.7813788  96.6349491  92.6141950 100.2382339  95.7957123
  93.2235091  99.0204472  96.4572334  96.4811554  95.5703519  97.4599610
  96.2248489  95.1700155  98.2907818  95.8564422  96.2847313  97.3349749
  93.7495636 104.4686456  92.5645681  94.5841240 104.0367654  92.3823156
  93.5879979 104.2968469  93.4922575  93.4041528 100.9718569  93.9302020
  93.3490332 100.8062840  92.9890464  92.7787583 101.6794602  94.0864210
  78.1934043  96.2086633 107.7563442  78.8392906  95.6985587 108.2450667
  77.9851194  96.9455315 108.3306867  86.7137653  90.4726678  93.5087338
  86.7016323  91.4168518  93.6655609  87.6061075  90.2896823  93.2146800
  90.5289773  87.0669454  97.7633275  89.7622169  86.5127941  97.9089958
  90.9400478  87.1391323  98.6247427  95.2109491 110.9224003  93.0780633
  94.3746803 111.2598689  93.3989908  95.0714261 110.7872983  92.1407770
  95.0847871 110.7671230  90.2778540  94.2077338 110.6460031  89.9140787
  95.5605624 109.9757309  90.0257429  92.7866339 111.7070233  93.8360195
  92.0935584 111.7814588  93.1800231  92.5418091 110.9430577  94.3581712
  97.8303180 111.7035617  90.0795650  96.9234636 111.4068730  90.1558364
  98.1079161 111.4065435  89.2129936  96.6001965 108.5622552  90.2207629
  97.4621129 108.8877451  90.4803447  96.7852309 107.7754048  89.7080695
  97.5531408 105.8018596  93.5087338  97.5410078 106.7460435  93.6655609
  98.4454830 105.6188741  93.2146800  37.3417385   0.0166723  89.3846164
  37.9795795  -0.1026529  88.6809504  37.2238228   0.9647567  89.4434116
  34.1507091  -0.0305849  89.3207689  33.8125603  -0.1464784  88.4328224
  35.0196860  -0.4314684  89.3008695  30.0093907   1.8229628  85.3104580
  29.4458772   1.7319565  84.5420867  29.8946302   1.0029532  85.7907072
  35.5893466   5.4900595  80.6219045  34.9381446   6.0754676  80.2353058
  36.3837829   6.0206790  80.6814082  29.5149093   2.5789733  81.0206179
  30.2879969   2.0318720  80.8819055  29.8674492   3.4433982  81.2320640
  31.8515371  -1.2617601  78.6524629  32.1040891  -1.7836080  77.8908092
  30.9139930  -1.4251456  78.7551313  36.8958654  -2.2581823  86.4599372
  37.6821743  -2.6762400  86.1089789  37.1597358  -1.3535731  86.6281021
  37.0668731   3.1791027  81.1588029  36.4314564   3.2525654  81.8708934
  36.7366137   3.7684626  80.4807108  42.2967081  -2.3206590  87.3632351
  43.0292253  -2.8907373  87.5970180  41.5406436  -2.7084989  87.8038856
  31.5711659   0.6410505  80.8549004  31.4547918  -0.0344592  81.5230088
  31.6813919   0.1542879  80.0381157  33.9143200   0.1020652  84.5595693
  33.5501408  -0.4248727  85.2708615  34.7710316  -0.2880879  84.3862179
  33.5548687  -4.8689449  79.5557042  33.7223090  -4.0009212  79.9227513
  33.3645856  -4.7062167  78.6318331  36.3124021   3.5927530  91.2222872
  36.0124744   4.4952569  91.1138679  35.9675080   3.3259714  92.0744025
  39.7121164  -3.8889929  88.9020309  38.8038042  -3.9574521  88.6079070
  39.6608760  -3.4117985  89.7302135  33.5337908  -2.4131791  80.5403708
  33.4137533  -1.9674740  81.3789189  32.8390497  -2.0646473  79.9817247
  31.2944800  10.3571851  84.1893840  31.2168830  11.3079676  84.2682320
  30.6906444  10.0117723  84.8468766  39.2322974  -1.9410318  81.3684042
  40.1440831  -1.7082931  81.1931740  38.7232621  -1.3573274  80.8059121
  37.8392557   3.0415501  88.7597624  37.2101419   3.2061215  88.0573692
  37.4518219   3.4557110  89.5308588  41.7181789   3.9769938  86.1141988
  41.0332827   4.3568840  85.5639021  41.8025638   4.5865265  86.8473935
  33.3920519   2.7789909  86.0247709  33.8558864   3.0577612  85.2352332
  33.1277317   1.8773353  85.8420800  32.3289405  -1.0986939  82.8337274
  33.0313448  -0.6465895  83.3011201  31.9970033  -1.7403120  83.4617167
  40.0878548   4.5001853  90.8859689  40.9095992   4.0982040  90.6042370
  40.0840951   4.3970087  91.8375804  48.1784541   0.8440601  87.2344660
  47.4248250   0.2747999  87.0788664  48.3132082   0.8103266  88.1815295
  33.5683169   5.7154004  82.9099379  33.4328844   6.5605539  83.3384227
  34.1092982   5.9173281  82.1465313  27.0212567   3.2329442  83.4827304
  27.5337087   4.0272692  83.6332869  27.6735279   2.5355732  83.4160906
  28.8307451   6.3495198  85.5650058  29.0074080   7.2713163  85.3771042
  29.6264285   6.0353617  85.9944437  29.9538767   7.8673372  91.5660400
  30.5046192   7.7390435  90.7937394  29.1150243   8.1668261  91.2155293
  36.8825916  -0.7706823  79.9470708  36.3672539  -0.0002219  80.1859095
  36.6103224  -1.4441687  80.5703769  41.8560190   1.9825531  81.8823881
  41.0789632   1.6436691  81.4379044  42.5351671   1.9878154  81.2078847
  36.6712219  -2.8979731  81.7730489  36.3662354  -2.5833582  82.6240632
  37.6242661  -2.8198311  81.8157822  35.1158651   3.2610492  83.4223443
  34.5880012   2.5263252  83.1096681  34.6146153   4.0385168  83.1763411
  40.0951497   1.4559513  88.5390489  39.4375171   2.1458774  88.6270618
  40.8991896   1.8455944  88.8824476  38.9056955  -0.1896115  86.5894431
  39.4188837   0.4433877  87.0916141  39.5558179  -0.7894919  86.2237791
  33.2611251   1.0790702  76.4258416  32.3538312   0.8479956  76.6249565
  33.7582283   0.2828322  76.6132398  36.1679330   9.7888209  79.3455102
  35.4941028  10.0919906  79.9540060  36.5545152  10.5917290  78.9960559
  36.1672834  -1.3155244  83.9655452  36.9144653  -0.8033846  83.6562574
  36.4364424  -1.6371191  84.8259846  34.4399484   1.1803297  80.9482406
  33.5310703   0.8962330  81.0454876  34.4694568   1.6002376  80.0885713
  39.6718752   4.7909887  84.7173574  39.2181079   3.9500797  84.7738764
  39.0412718   5.4271285  85.0548354  38.6151671  -4.2798127  85.9474241
  37.8774428  -4.7920741  86.2784484  38.8678445  -4.7197746  85.1357518
  38.1151691   6.6286383  85.6523392  38.4074665   7.1891440  84.9335758
  38.6250311   6.9214944  86.4076551  32.9884378  -1.2068082  87.0492202
  33.0432988  -2.1594246  86.9734678  32.1775580  -1.0508643  87.5333500
  34.1375572   2.7212041  78.2870485  33.6995002   2.0047900  77.8276122
  34.8786013   2.9488156  77.7255576  30.9276738  -2.5891023  84.8082580
  30.1144604  -2.2896852  85.2147773  31.4235732  -2.9835334  85.5257063
  33.0785316   7.4066734  86.7416845  33.0361495   7.6327581  85.8125377
  33.9948015   7.1730109  86.8902646  42.2548687   0.9969238  84.3446803
  42.1166585   1.1870834  83.4167993  41.8984906   1.7588621  84.8014855
  42.2818066   3.0645765  89.3558075  42.7154573   2.9721054  90.2041129
  42.9949647   3.0403265  88.7178091  31.1951117   4.2829763  86.5378808
  31.9891715   3.7880084  86.3361383  30.4842809   3.7547627  86.1746513
  36.0145961   6.6647859  90.8891176  36.0682984   7.2338795  91.6568891
  35.1460743   6.8349744  90.5245213  43.1433616   3.1069466  91.8890960
  43.3369506   4.0115276  92.1350235  43.0434234   2.6476885  92.7229545
  33.7722393   4.8558785  90.2176645  33.6333479   4.4877570  91.0902583
  32.9836989   5.3706425  90.0460603  34.3670545   9.9567882  81.5602182
  34.5422300   9.4855925  82.3747804  33.6803333  10.5833648  81.7883442
  35.3227608   4.2340388  87.6065483  34.9877441   4.1941158  88.5023133
  34.8231554   3.5685104  87.1335893  38.2586800   1.5796422  77.8802542
  37.6415970   0.8543251  77.7835595  37.7903288   2.3405783  77.5369617
  28.9331630  13.1057245  88.3342042  29.1728228  13.7375769  89.0121060
  28.0900827  12.7545285  88.6207401  33.4459492   8.9136367  90.7383546
  33.3729663   9.7191339  91.2502850  33.0036885   9.1128333  89.9131567
  33.2349272   8.1508137  84.2486367  32.4516793   8.6929817  84.3424592
  33.9342017   8.6682117  84.6480608  36.5445922  -6.0397233  86.8920573
  37.0414621  -6.7927271  86.5721643  35.7732903  -6.0032917  86.3263782
  44.3975679  -0.3356868  88.5338864  44.3865555   0.5467848  88.1632797
  43.5293058  -0.6885317  88.3393401  35.9058175   8.8123201  92.8941704
  36.6186148   9.4470666  92.8217606  35.4148204   8.9087067  92.0781706
  37.6275702   2.7174454  84.4658996  36.6931981   2.8375916  84.2963700
  37.8052371   1.8146921  84.2019006  41.0148254  -1.4408227  85.0009030
  41.4808706  -0.6080235  84.9269333  41.4655754  -1.9063245  85.7054289
  39.0824485   4.9035594  81.9995182  39.3584329   4.7892189  82.9089056
  38.2128984   4.5053079  81.9607355  35.7178549   9.1521945  85.6427996
  35.9000943   8.3343601  86.1055748  36.5411535   9.3689637  85.2052886
  36.0520714   8.0790130  82.9043044  36.5808481   7.5682585  82.2913206
  36.3148934   7.7632661  83.7688577  29.4076462   9.1305247  85.6640820
  28.7386838   9.6151375  85.1804860  29.2689332   9.3774467  86.5784199
  33.5481731  11.1648991  92.2623479  34.1000039  11.3280612  93.0272564
  33.8887924  11.7553428  91.5903503  36.6850118   9.1130966  89.2487161
  36.5601258   8.3120706  88.7398106  37.3429209   9.6077159  88.7601131
  38.7485027   6.9139986  90.8766711  37.8015362   6.7945337  90.8045038
  39.0967800   6.0262484  90.9592972  35.7531460   6.7092702  87.0771063
  35.6056422   5.7809410  87.2578633  36.5784953   6.7312793  86.5928138
  39.3565582   7.5321261  88.1635936  40.2812129   7.3264122  88.0260387
  39.1880885   7.2837662  89.0725277  35.7492974  -5.4369460  82.0703180
  35.9656589  -4.5544822  81.7692008  35.2687041  -5.8283247  81.3408822
  39.1460898   8.0506929  83.5198027  39.3197775   7.4853351  82.7671880
  39.6389789   8.8507823  83.3377517  45.0000289   0.8143352  85.1388327
  45.4431435   0.0650677  84.7407450  44.1226799   0.8053488  84.7562059
  40.1336070   7.3673693  80.6194926  40.8286975   7.9880386  80.8382240
  40.4759220   6.5169044  80.8947303  42.0327493   4.8173399  82.1482256
  42.5578818   5.1560671  81.4231576  41.9449846   3.8820414  81.9645391
  33.7168154  10.8845382  86.5077509  33.2773145  10.3921760  87.2010366
  34.4676271  10.3418349  86.2669585  26.1960493   7.0756923  86.5102138
  27.0218513   6.7760695  86.1300781  25.8454545   6.3064545  86.9591926
  31.1642026   6.4283391  88.5799811  30.5422036   5.7654096  88.2802039
  31.8346893   6.4544523  87.8973459  24.3969098   4.9943249  87.4691071
  23.5601007   4.5665423  87.2875072  24.3692744   5.1875692  88.4061862
  30.7255533   4.9787314  82.0558272  30.8743654   5.6622779  81.4024944
  31.5321977   4.9592404  82.5707727  43.3437471   4.7195710  95.0108204
  43.0522280   5.0825691  95.8471665  42.7309603   4.0062718  94.8321536
  44.5433154   2.2848590  87.5310775  45.3780045   2.7238394  87.6948335
  44.6792283   1.8087243  86.7119020  28.4808166   1.0052492  83.0619341
  28.2354208   0.1014822  83.2599551  28.6504081   1.0069642  82.1198819
  34.2250939   7.4735445  79.5270019  33.6524906   8.0925632  79.0740491
  34.7983732   8.0234806  80.0609941  37.4448199   7.7572595  80.6578601
  38.3778872   7.6918156  80.8611477  37.3571411   8.5928862  80.1993134
  40.0736215   7.0738465  77.6182549  39.9949847   6.7398329  78.5118307
  40.8945882   7.5660233  77.6174021  42.7714406  -0.0599796  90.8258868
  42.7390727  -0.9983795  91.0118551  43.3815030   0.0184241  90.0924692
  34.6097737  -1.1903743  76.8686072  35.5556842  -1.3197534  76.9374490
  34.2311982  -1.9289081  77.3455500  48.5890956   1.0016211  89.9664904
  49.3194345   0.7401499  90.5272608  47.9797902   0.2644933  90.0066972
  46.6706253  -0.8575926  90.5639356  45.9439417  -0.9919961  89.9555847
  46.2553540  -0.5499098  91.3696074  32.7940654  -3.2653766  76.8040957
  31.8872110  -3.5620653  76.8803670  33.0716635  -3.5623948  75.9375243
  39.7172076  -7.5338305  84.0888159  39.1370745  -6.8753500  83.7066211
  39.4508008  -8.3560960  83.6775577  38.4996954  -5.3738214  83.1444507
  37.6122809  -5.0888564  82.9264702  38.9150943  -5.5344451  82.2971784
  41.8511490  -5.3491693  86.8598847  42.6271880  -4.8595241  87.1323463
  41.1259624  -4.9233639  87.3170716  44.2884048  -4.6364074  87.9172787
  44.8828539  -4.8768338  87.2066095  44.3610632  -5.3556943  88.5446323
  26.5081204   9.2069537  88.2315952  26.3735672   8.4469938  87.6653950
  26.0913266   9.9310437  87.7644741  37.6440167   4.3906461  77.2392527
  38.3476017   4.5956463  77.8550183  36.9202816   4.9583222  77.5041611
  38.4737977   0.1416322  83.3594797  38.4173179   0.5984873  82.5202430
  39.0266320  -0.6192994  83.1817640  42.2842783  -4.0693946  84.1844917
  42.0279717  -4.4697311  85.0153125  41.6595651  -3.3550152  84.0595056
  46.5955121  -1.3297873  86.6916208  46.0354679  -1.2604684  87.4647770
  45.9898624  -1.5056888  85.9715705  29.6650330  10.1038854  88.4434395
  29.5482714  11.0484287  88.3413085  28.8442776   9.8012416  88.8320194
  39.5526864   4.8288990  79.2890987  40.3872468   4.3970188  79.1068462
  39.3911207   4.6571003  80.2167882  39.2072757   1.3321103  80.6547327
  39.1521560   1.1665374  79.7135771  38.5818812   2.0397136  80.8109516
  30.6904844  10.7567116  91.6590323  31.5932091  10.7890726  91.9756818
  30.4642214   9.8267567  91.6736659  32.4458446   9.5098102  88.3200402
  31.4954077   9.5099964  88.2064774  32.7490932   8.7630837  87.8036436
  48.1811140  15.3458641  89.3846164  48.8189549  15.2265388  88.6809504
  48.0631982  16.2939485  89.4434116  44.9900846  15.2986069  89.3207689
  44.6519357  15.1827134  88.4328224  45.8590614  14.8977234  89.3008695
  40.8487662  17.1521545  85.3104580  40.2852527  17.0611482  84.5420867
  40.7340057  16.3321450  85.7907072  45.4720629  16.4520921  95.2793894
  45.4609270  16.0573719  94.4074398  45.6341268  15.7186993  95.8727666
  38.3952093  18.6472737  88.1488800  39.1873385  18.3063562  87.7335099
  38.6348744  18.7567712  89.0690954  46.4287220  20.8192513  80.6219045
  45.7775200  21.4046593  80.2353058  47.2231583  21.3498708  80.6814082
  40.3542847  17.9081650  81.0206179  41.1273723  17.3610637  80.8819055
  40.7068246  18.7725900  81.2320640  42.1927890  19.2358032  94.2273078
  41.9017756  20.1403663  94.1119745  42.8284874  19.2774560  94.9417148
  43.1184097  16.6134881  90.8174438  43.7147669  16.3890903  90.1031401
  43.1759068  15.8719626  91.4199886  42.6909125  14.0674316  78.6524629
  42.9434646  13.5455838  77.8908092  41.7533684  13.9040462  78.7551313
  47.7352408  13.0710095  86.4599372  48.5215497  12.6529518  86.1089789
  47.9991112  13.9756187  86.6281021  47.9062485  18.5082945  81.1588029
  47.2708318  18.5817572  81.8708934  47.5759892  19.0976544  80.4807108
  53.1360835  13.0085328  87.3632351  53.8686007  12.4384545  87.5970180
  52.3800191  12.6206928  87.8038856  42.4105414  15.9702422  80.8549004
  42.2941672  15.2947326  81.5230088  42.5207674  15.4834796  80.0381157
  44.7536955  15.4312569  84.5595693  44.3895162  14.9043190  85.2708615
  45.6104071  15.0411038  84.3862179  50.6586255   6.7206902  91.8226959
  50.3269580   7.5902313  91.5988174  50.0631869   6.4043186  92.5020990
  44.3942442  10.4602469  79.5557042  44.5616844  11.3282705  79.9227513
  44.2039611  10.6229751  78.6318331  47.1517775  18.9219448  91.2222872
  46.8518498  19.8244487  91.1138679  46.8068835  18.6551631  92.0744025
  40.6030257  15.3733245  87.2559576  39.6780753  15.2409459  87.4637268
  40.8514670  16.1527464  87.7529519  50.5514919  11.4401988  88.9020309
  49.6431796  11.3717397  88.6079070  50.5002515  11.9173933  89.7302135
  44.3731663  12.9160127  80.5403708  44.2531288  13.3617177  81.3789189
  43.6784251  13.2645444  79.9817247  37.9639068  15.0166518  88.0903365
  38.0931449  15.2700997  89.0042777  37.2836519  15.6094226  87.7708021
  42.1338555  25.6863768  84.1893840  42.0562585  26.6371593  84.2682320
  41.5300198  25.3409641  84.8468766  44.6255785  12.8591634  96.8455207
  43.8489119  13.4185554  96.8358071  45.2646348  13.3448417  97.3670077
  52.4176565   9.6418427  90.6798183  51.7750945   9.9350960  90.0337978
  51.9131494   9.5271347  91.4851380  50.0716729  13.3881600  81.3684042
  50.9834585  13.6208987  81.1931740  49.5626376  13.9718644  80.8059121
  42.8802157  15.6677087  96.4073174  43.6216841  16.2062131  96.1307997
  42.1739142  16.2943376  96.5644725  48.3557497  17.8106228  95.0045335
  48.7640853  17.3688638  94.2599967  47.6334758  17.2358855  95.2579528
  44.7088567  12.7478834  92.3778892  45.5549762  13.1718248  92.5213541
  44.6487204  12.0912459  93.0717455  48.6786311  18.3707418  88.7597624
  48.0495174  18.5353132  88.0573692  48.2911973  18.7849028  89.5308588
  52.5575543  19.3061856  86.1141988  51.8726581  19.6860757  85.5639021
  52.6419392  19.9157183  86.8473935  47.8588012  10.4083203  94.0360066
  47.6148944  11.1625263  93.4994341  48.1347942  10.7868550  94.8707313
  49.8126475  16.9521815  92.7137331  50.0243370  17.5953575  92.0371712
  49.7656223  16.1184132  92.2459261  47.4152704   9.5639636  89.6173903
  46.5537183   9.8620889  89.9090641  47.4415138   9.7810035  88.6854936
  44.2314273  18.1081826  86.0247709  44.6952619  18.3869529  85.2352332
  43.9671071  17.2065271  85.8420800  41.1238354  17.6553308  88.9627472
  41.6939711  18.0840576  88.3244957  41.7146466  17.3735893  89.6611658
  43.1683159  14.2304979  82.8337274  43.8707202  14.6826022  83.3011201
  42.8363788  13.5888798  83.4617167  41.6163521  12.8216735  97.2088484
  40.9862181  13.5033016  97.4423880  41.5099609  12.7099817  96.2641622
  36.9108493  12.4888531  88.1354408  36.1207547  12.7446060  87.6594518
  37.4019740  13.3036869  88.2406448  50.9272303  19.8293771  90.8859689
  51.7489746  19.4273958  90.6042370  50.9234706  19.7262005  91.8375804
  38.8623238  12.8533111  85.0937884  38.0654402  12.9651805  85.6121380
  38.6348831  13.1919763  84.2278775  44.6928906  19.3777814  93.0420399
  44.7573339  19.8398221  93.8778571  43.9839830  18.7475179  93.1702709
  35.1946196  12.7419022  90.5669399  35.4454234  13.6266032  90.8326974
  35.7305744  12.5623623  89.7944490  59.0178296  16.1732519  87.2344660
  58.2642004  15.6039917  87.0788664  59.1525837  16.1395183  88.1815295
  44.4076924  21.0445921  82.9099379  44.2722599  21.8897457  83.3384227
  44.9486736  21.2465199  82.1465313  37.8606321  18.5621359  83.4827304
  38.3730842  19.3564610  83.6332869  38.5129034  17.8647650  83.4160906
  39.6701206  21.6787116  85.5650058  39.8467834  22.6005080  85.3771042
  40.4658039  21.3645535  85.9944437  43.8112224   8.5395380  97.1633991
  44.5521938   9.1402533  97.0838454  44.0430147   7.7973018  96.6052034
  38.9553562  13.7251748  95.4412221  38.8407078  12.8237005  95.7419320
  38.0998080  13.9715444  95.0897037  46.0345400  21.6669488  97.0399721
  45.5909254  20.8805866  96.7220626  46.6962614  21.8548638  96.3743612
  40.7932521  23.1965289  91.5660400  41.3439946  23.0682353  90.7937394
  39.9543997  23.4960178  91.2155293  48.1326638  21.9472288  95.0681123
  48.1145114  22.7681169  94.5761392  49.0546558  21.8226363  95.2931264
  44.5899692  19.4616417  95.9104631  45.1228029  18.7004705  95.6803939
  44.0613773  19.1690069  96.6528786  47.7569387   4.5676483  91.4398273
  47.4133657   5.4578125  91.3637383  48.1248350   4.3778141  90.5767858
  35.8255238  16.8910014  84.2586875  36.6630460  17.3007022  84.0420583
  36.0033506  15.9509456  84.2287069  47.7219670  14.5585094  79.9470708
  47.2066293  15.3289699  80.1859095  47.4496978  13.8850230  80.5703769
  45.3066781   9.4034795  85.0055946  44.4508377   9.0141645  84.8261585
  45.7193733   9.4826756  84.1455732  46.8365928   6.9381138  89.4047506
  46.3330723   6.9011273  88.5915311  47.1296535   7.8473881  89.4644163
  43.0808814   7.0219868  88.4113688  43.9461810   6.8262677  88.0519577
  43.1486322   6.7930220  89.3383045  52.6953944  17.3117449  81.8823881
  51.9183387  16.9728608  81.4379044  53.3745425  17.3170072  81.2078847
  47.5105973  12.4312186  81.7730489  47.2056109  12.7458336  82.6240632
  48.4636415  12.5093606  81.8157822  45.9552405  18.5902410  83.4223443
  45.4273767  17.8555169  83.1096681  45.4539908  19.3677086  83.1763411
  50.9345251  16.7851430  88.5390489  50.2768926  17.4750692  88.6270618
  51.7385650  17.1747862  88.8824476  40.6871133   9.2522076  85.7830055
  41.2614885   9.0297257  85.0503248  41.2742115   9.3210770  86.5358656
  49.7450710  15.1395803  86.5894431  50.2582592  15.7725795  87.0916141
  50.3951934  14.5396998  86.2237791  41.0140720  11.2826537  79.8025940
  40.1778032  11.6201224  80.1235215  40.8745489  11.1475517  78.8653077
  42.9893800   6.1263325  84.5105124  42.3358213   5.8112342  83.8861739
  42.9474275   5.5039065  85.2364947  44.1005005  16.4082620  76.4258416
  43.1932067  16.1771873  76.6249565  44.5976037  15.6120239  76.6132398
  47.0073084  25.1180127  79.3455102  46.3334783  25.4211824  79.9540060
  47.3938906  25.9209207  78.9960559  46.2231541  12.6145258  88.8352772
  45.3054102  12.8360205  88.6774460  46.6391684  12.6891569  87.9764479
  47.0066588  14.0136674  83.9655452  47.7538407  14.5258071  83.6562574
  47.2758178  13.6920727  84.8259846  45.2793239  16.5095215  80.9482406
  44.3704458  16.2254248  81.0454876  45.3088322  16.9294293  80.0885713
  50.5112506  20.1201804  84.7173574  50.0574833  19.2792714  84.7738764
  49.8806473  20.7563203  85.0548354  49.4545426  11.0493790  85.9474241
  48.7168182  10.5371177  86.2784484  49.7072199  10.6094172  85.1357518
  48.9545445  21.9578301  85.6523392  49.2468420  22.5183358  84.9335758
  49.4644066  22.2506862  86.4076551  49.5557053   3.8270042  86.5416011
  49.8615930   2.9667406  86.2541926  50.2809658   4.4187663  86.3415004
  35.8481409  14.2300729  84.9297608  35.6505809  13.6370090  84.2048675
  35.2928073  13.9252939  85.6473547  43.8278133  14.1223835  87.0492202
  43.8826742  13.1697672  86.9734678  43.0169335  14.2783275  87.5333500
  44.9769326  18.0503959  78.2870485  44.5388756  17.3339817  77.8276122
  45.7179767  18.2780073  77.7255576  41.7670493  12.7400895  84.8082580
  40.9538358  13.0395066  85.2147773  42.2629487  12.3456584  85.5257063
  43.9179071  22.7358652  86.7416845  43.8755249  22.9619498  85.8125377
  44.8341769  22.5022027  86.8902646  47.3644704  13.2042720  93.6397474
  47.7194092  13.4314193  94.4991940  48.0116836  13.5361096  93.0174730
  53.0942441  16.3261156  84.3446803  52.9560340  16.5162752  83.4167993
  52.7378660  17.0880538  84.8014855  41.2584567  10.3119251  90.4243815
  41.8983947  10.1708010  89.7266779  40.4262098  10.0253764  90.0482417
  53.1211821  18.3937683  89.3558075  53.5548328  18.3012972  90.2041129
  53.8343402  18.3695183  88.7178091  42.0344871  19.6121681  86.5378808
  42.8285470  19.1172001  86.3361383  41.3236564  19.0839544  86.1746513
  46.8539716  21.9939777  90.8891176  46.9076738  22.5630713  91.6568891
  45.9854497  22.1641662  90.5245213  38.3427635  13.7564763  82.6138561
  37.4125223  13.6949218  82.8308523  38.4385107  13.2340716  81.8175202
  38.2613184  10.2819576  85.2016802  38.5220001  11.1964909  85.0925963
  39.0830356   9.8144018  85.3513415  39.7338109  11.6957333  92.3715627
  40.4061163  11.4874695  91.7228276  38.9067896  11.4979419  91.9320859
  53.9827370  18.4361383  91.8890960  54.1763261  19.3407194  92.1350235
  53.8827989  17.9768802  92.7229545  45.6363681   8.3219274  94.3881288
  44.9891596   9.0209223  94.2945764  46.4064697   8.7555418  94.7557536
  49.0442479  18.5868126  97.4631841  48.8927986  18.3578678  96.5461925
  49.0347159  19.5438727  97.4763186  45.8127816  16.1600039  92.4478107
  46.7419876  16.3111198  92.2747075  45.3918846  16.2484059  91.5926754
  44.6116147  20.1850703  90.2176645  44.4727233  19.8169488  91.0902583
  43.8230744  20.6998343  90.0460603  45.2064299  25.2859800  81.5602182
  45.3816055  24.8147843  82.3747804  44.5197087  25.9125566  81.7883442
  46.1621362  19.5632306  87.6065483  45.8271195  19.5233076  88.5023133
  45.6625308  18.8977022  87.1335893  40.1365606  14.9699936  93.1318064
  39.9985404  14.2380175  93.7329603  41.0470530  14.8808836  92.8502252
  49.0980554  16.9088340  77.8802542  48.4809725  16.1835168  77.7835595
  48.6297043  17.6697700  77.5369617  42.7647907  14.6819895  92.6201744
  43.4747526  14.0413087  92.5788362  42.7217215  14.9332790  93.5427924
  50.7534686  21.6187248  95.5408323  50.6947232  20.9346469  94.8738906
  51.1554204  22.3606239  95.0888949  41.4776841  11.6685113  94.4397383
  40.9414198  11.2175851  95.0918979  40.8893550  11.8031022  93.6967847
  39.7725385  28.4349162  88.3342042  40.0121983  29.0667686  89.0121060
  38.9294581  28.0837202  88.6207401  40.8879100  11.1273764  77.0023847
  40.0108566  11.0062565  76.6386093  41.3636853  10.3359843  76.7502735
  50.7552093  19.5826832  93.7722302  49.8678872  19.2452754  93.8948701
  51.3250644  18.8509864  94.0091068  32.4081240  15.9150924  87.0965354
  33.0952280  15.6012654  86.5086369  32.2529369  16.8192289  86.8232605
  37.2115962  10.8041121  91.5250378  37.1274151  10.1966790  90.7900787
  36.3898669  11.2950139  91.5259874  44.2853246  24.2428285  90.7383546
  44.2123418  25.0483256  91.2502850  43.8430640  24.4420251  89.9131567
  44.0743026  23.4800055  84.2486367  43.2910548  24.0221735  84.3424592
  44.7735771  23.9974034  84.6480608  47.3839676   9.2894684  86.8920573
  47.8808376   8.5364647  86.5721643  46.6126658   9.3259001  86.3263782
  55.2369434  14.9935050  88.5338864  55.2259310  15.8759765  88.1632797
  54.3686813  14.6406601  88.3393401  46.7451930  24.1415119  92.8941704
  47.4579902  24.7762584  92.8217606  46.2541959  24.2378985  92.0781706
  48.4669457  18.0466371  84.4658996  47.5325736  18.1667834  84.2963700
  48.6446125  17.1438838  84.2019006  43.9674645  11.4312067  86.6192257
  43.5972432  10.8783108  87.3073163  44.4633737  10.8270201  86.0667257
  51.8542008  13.8883691  85.0009030  52.3202460  14.7211682  84.9269333
  52.3049509  13.4228672  85.7054289  41.7963843  21.8909562  93.7147275
  42.4973303  22.5246045  93.8676669  41.3258958  22.2324294  92.9542914
  49.9218239  20.2327512  81.9995182  50.1978083  20.1184107  82.9089056
  49.0522738  19.8344997  81.9607355  49.8258671   6.2564278  89.0399931
  48.9121751   6.4868505  89.2082138  50.2551772   6.3402722  89.8913964
  49.5965129  14.4454170  91.5399825  48.9436580  14.6930077  90.8852278
  49.9745509  13.6318308  91.2062303  46.5572303  24.4813863  85.6427996
  46.7394698  23.6635519  86.1055748  47.3805289  24.6981555  85.2052886
  46.8914469  23.4082048  82.9043044  47.4202235  22.8974503  82.2913206
  47.1542688  23.0924578  83.7688577  45.6452702  15.1873981  98.0265863
  44.9693339  15.0868110  98.6968238  46.4680336  15.0313195  98.4901860
  37.3931562  21.4245917  90.6478378  37.9784998  20.6789605  90.7806282
  37.1956400  21.7349874  91.5315042  40.2470217  24.4597165  85.6640820
  39.5780592  24.9443292  85.1804860  40.1083086  24.7066385  86.5784199
  31.9849216  13.9951518  89.3682821  32.0233316  13.4615108  90.1619939
  31.4789509  13.4686723  88.7493798  44.3875485  26.4940908  92.2623479
  44.9393793  26.6572530  93.0272564  44.7281679  27.0845346  91.5903503
  39.3639979   8.8416058  92.8645363  39.4281305   9.7030889  92.4522761
  39.3007099   8.2290060  92.1317722  38.8392251  10.9139191  96.5118398
  39.4664290  10.5316268  97.1255922  37.9820170  10.6953393  96.8774090
  49.2386360  21.3202166  98.1172133  49.7826264  21.9332124  97.6227088
  48.6573205  21.8781744  98.6339146  35.6157794  12.7215620  82.4436752
  35.9111235  11.8126298  82.3903806  34.7145830  12.7003359  82.1217755
  47.5243873  24.4422884  89.2487161  47.3995012  23.6412624  88.7398106
  48.1822964  24.9369077  88.7601131  39.1452041  10.7971616  88.4264301
  38.4238627  11.4107584  88.2871774  39.9345297  11.3329381  88.3480947
  49.5878781  22.2431904  90.8766711  48.6409117  22.1237255  90.8045038
  49.9361554  21.3554402  90.9592972  41.9478354   8.1326043  94.7004953
  42.4712756   8.3788339  95.4631262  41.7290688   8.9646078  94.2808090
  37.3445635  10.4029717  82.5676078  37.0158342   9.5227096  82.3851183
  37.6985006  10.3477386  83.4552467  46.5925214  22.0384620  87.0771063
  46.4450177  21.1101327  87.2578633  47.4178708  22.0604711  86.5928138
  40.4587459  10.6902687  82.9351555  40.7983531  11.2188608  82.2130164
  40.9059579  11.0283093  83.7110122  50.1959336  22.8613179  88.1635936
  51.1205884  22.6556040  88.0260387  50.0274640  22.6129580  89.0725277
  43.1530899   9.0739738  92.3854623  42.8127720   8.2747551  92.7875303
  42.4469906   9.3741449  91.8131456  43.8047371   6.1589050  90.8381946
  44.6273441   5.6849528  90.7160837  44.0485435   6.9379534  91.3380633
  42.4455606   9.1877309  81.1344848  43.1663968   9.5658562  80.6308565
  41.8220910   9.9066186  81.2379826  46.5886729   9.8922458  82.0703180
  46.8050343  10.7747096  81.7692008  46.1080796   9.5008671  81.3408822
  41.3285950  12.8508171  88.6473925  41.1830531  13.1648474  89.5398206
  40.8511154  13.4693071  88.0944824  43.1882333   9.8410719  88.6954814
  43.1743902   8.9451812  88.3587112  43.9054761   9.8481383  89.3293100
  45.0408464  10.2748059  90.7407942  44.7826241  11.1965130  90.7392272
  44.5093504   9.8778494  91.4308406  49.9854652  23.3798846  83.5198027
  50.1591530  22.8145269  82.7671880  50.4783544  24.1799741  83.3377517
  35.8031612  15.3913515  91.5861586  35.2585080  16.1673323  91.7181860
  36.6810962  15.7384320  91.4280707  42.5919229   8.7225099  83.9642385
  42.7135140   7.7941745  84.1633272  42.3021271   8.7363785  83.0520700
  45.4610419   6.4080010  87.1009104  45.4832116   6.4719343  86.1461084
  45.8778478   5.5684518  87.2949611  55.8394044  16.1435269  85.1388327
  56.2825190  15.3942594  84.7407450  54.9620554  16.1345406  84.7562059
  50.9729825  22.6965611  80.6194926  51.6680729  23.3172303  80.8382240
  51.3152975  21.8460962  80.8947303  36.5897634  14.5183412  94.4791743
  35.8479370  14.6666047  95.0656373  36.2690378  14.7791677  93.6158492
  52.8721248  20.1465316  82.1482256  53.3972572  20.4852589  81.4231576
  52.7843601  19.2112332  81.9645391  44.5341297  24.0599390  94.2772133
  44.8428423  23.8148537  95.1494833  45.3316779  24.2646028  93.7891003
  44.5561909  26.2137299  86.5077509  44.1166899  25.7213678  87.2010366
  45.3070026  25.6710267  86.2669585  37.0354248  22.4048840  86.5102138
  37.8612268  22.1052612  86.1300781  36.6848300  21.6356463  86.9591926
  42.0035781  21.7575309  88.5799811  41.3815790  21.0946014  88.2802039
  42.6740648  21.7836440  87.8973459  35.2362853  20.3235167  87.4691071
  34.3994761  19.8957341  87.2875072  35.2086498  20.5167610  88.4061862
  42.0760308  10.2357097  98.1732317  42.1248464  11.1119219  97.7910087
  42.6182823   9.6934490  97.6003960  52.5615154  20.7798220  97.4533454
  51.7710698  20.7622359  96.9137954  52.3248509  21.3186514  98.2082491
  52.6813029  17.6290686  94.7666183  52.7311034  17.4640694  95.7081706
  52.5726952  16.7617945  94.3764064  41.5649288  20.3079232  82.0558272
  41.7137408  20.9914696  81.4024944  42.3715731  20.2884322  82.5707727
  49.9716791  13.6121614  96.0825490  50.8726654  13.4728079  95.7909487
  50.0464766  13.7776069  97.0223667  44.3059597  10.9888469  94.9278676
  43.4362906  11.2822035  94.6561264  44.5419077  11.5728914  95.6485939
  54.1831226  20.0487628  95.0108204  53.8916034  20.4117608  95.8471665
  53.5703357  19.3354636  94.8321536  55.3826908  17.6140507  87.5310775
  56.2173800  18.0530312  87.6948335  55.5186037  17.1379161  86.7119020
  52.4318414  15.1720242  93.4788262  52.9072536  15.3647889  92.6707114
  51.5083980  15.2279428  93.2331646  39.3201921  16.3344410  83.0619341
  39.0747963  15.4306740  83.2599551  39.4897835  16.3361560  82.1198819
  47.0098631   7.2068086  92.4444096  47.5280574   7.9429113  92.1190585
  46.6553763   7.5132079  93.2790855  38.5897568  12.0672767  80.5605502
  37.8966813  12.1417122  79.9045538  38.3449320  11.3033111  81.0827019
  47.2611225   3.6268368  87.9644993  47.5412979   2.9591558  88.5905419
  48.0461832   3.8197464  87.4519657  45.0644693  22.8027362  79.5270019
  44.4918660  23.4217549  79.0740491  45.6377487  23.3526724  80.0609941
  51.1320083  12.0486002  91.7116568  52.0837506  12.1484100  91.7328792
  50.9623534  11.2564271  92.2214652  49.1534463   9.1341586  91.8975969
  48.5584395   9.4146598  91.2022457  48.8684159   9.6235487  92.6692710
  48.2841953  23.0864512  80.6578601  49.2172626  23.0210074  80.8611477
  48.1965166  23.9220779  80.1993134  50.9129970  22.4030383  77.6182549
  50.8343601  22.0690246  78.5118307  51.7339637  22.8952151  77.6174021
  53.6108161  15.2692122  90.8258868  53.5784481  14.3308123  91.0118551
  54.2208785  15.3476159  90.0924692  45.4491492  14.1388175  76.8686072
  46.3950597  14.0094383  76.9374490  45.0705737  13.4002837  77.3455500
  53.7602649  12.0603166  90.8717151  53.2441698  11.2761622  90.6847080
  54.6442598  11.7321882  91.0363670  51.4213376   5.8044181  86.8312963
  51.2238197   5.4959269  87.7156295  52.0313082   6.5305820  86.9610893
  59.4284711  16.3308129  89.9664904  60.1588099  16.0693417  90.5272608
  58.8191656  15.5936851  90.0066972  57.5100008  14.4715992  90.5639356
  56.7833171  14.3371956  89.9555847  57.0947295  14.7792820  91.3696074
  45.3330184  18.1905921  98.3286729  46.2533194  18.3684520  98.5226775
  45.2979767  17.2461967  98.1766428  43.6334409  12.0638151  76.8040957
  42.7265864  11.7671264  76.8803670  43.9110390  11.7667970  75.9375243
  34.5512349  13.3844515  87.2540003  34.2315134  12.5309823  86.9614377
  34.0045778  13.5993093  88.0097971  38.3292257  16.1006956  90.9709510
  38.5478267  17.0324064  90.9897544  38.7418031  15.7414930  91.7564314
  45.2496475   6.6075041  82.9585198  44.4397203   6.2622126  83.3340444
  45.9380892   6.2982585  83.5472810  47.1787023   5.6853088  84.5809495
  47.7318062   6.1048541  85.2399518  47.4157109   4.7588836  84.6232451
  42.4033194   8.9225087  76.9452936  43.2652358   9.2479985  77.2048753
  42.5883538   8.1356583  76.4326002  34.4200609  17.0047426  89.2233125
  33.7264081  16.5901379  88.7103079  35.1673600  17.0467963  88.6266544
  50.5565830   7.7953613  84.0888159  49.9764499   8.4538417  83.7066211
  50.2901763   6.9730958  83.6775577  49.0069396   7.1958671  86.2909479
  49.5069175   7.3075205  85.4823798  49.6505004   6.8919724  86.9310288
  43.0651392  15.1037300  99.1777320  42.5818474  15.9037661  99.3841209
  43.1512331  15.1145245  98.2244764  36.3337352  16.9365680  87.0999140
  36.3108040  17.0353367  86.1481023  36.6437988  17.7830831  87.4216306
  38.9924730  18.9941835  91.2145754  39.9467983  18.9625778  91.1475686
  38.7937253  18.5332459  92.0295980  39.5824112  17.5642951  93.7816552
  40.4017001  18.0587030  93.8051389  39.8560920  16.6474919  93.7534119
  49.3390708   9.9553704  83.1444507  48.4516563  10.2403354  82.9264702
  49.7544697   9.7947467  82.2971784  52.6905244   9.9800225  86.8598847
  53.4665634  10.4696677  87.1323463  51.9653378  10.4058279  87.3170716
  55.1277803  10.6927844  87.9172787  55.7222294  10.4523580  87.2066095
  55.2004387   9.9734974  88.5446323  37.3474959  24.5361455  88.2315952
  37.2129426  23.7761856  87.6653950  36.9307021  25.2602355  87.7644741
  48.4833922  19.7198378  77.2392527  49.1869772  19.9248381  77.8550183
  47.7596570  20.2875140  77.5041611  49.3131732  15.4708239  83.3594797
  49.2566933  15.9276791  82.5202430  49.8660074  14.7098924  83.1817640
  53.1236538  11.2597971  84.1844917  52.8673472  10.8594607  85.0153125
  52.4989406  11.9741765  84.0595056  57.4348876  13.9994045  86.6916208
  56.8748434  14.0687234  87.4647770  56.8292379  13.8235029  85.9715705
  40.5044084  25.4330772  88.4434395  40.3876469  26.3776204  88.3413085
  39.6836531  25.1304333  88.8320194  50.3920619  20.1580907  79.2890987
  51.2266223  19.7262106  79.1068462  50.2304962  19.9862921  80.2167882
  50.0466511  16.6613021  80.6547327  49.9915315  16.4957292  79.7135771
  49.4212566  17.3689054  80.8109516  34.8359026  11.8981085  94.4808749
  35.4817890  11.3880039  94.9695974  34.6276177  12.6349767  95.0552174
  47.3612418  18.9661933  99.9800889  48.2303578  19.1402585  99.6187524
  46.8819170  19.7856349  99.8576619  43.3562637   6.1621130  80.2332645
  43.3441306   7.1062970  80.3900916  44.2486058   5.9791275  79.9392106
  41.5298599  26.0859034  91.6590323  42.4325845  26.1182644  91.9756818
  41.3035969  25.1559485  91.6736659  43.2852201  24.8390020  88.3200402
  42.3347832  24.8391882  88.2064774  43.5884687  24.0922755  87.8036436
  47.1714756   2.7563906  84.4878582  46.4047152   2.2022393  84.6335264
  47.5825461   2.8285775  85.3492733  59.0204894  30.6750559  89.3846164
  59.6583304  30.5557306  88.6809504  58.9025737  31.6231402  89.4434116
  55.8294600  30.6277987  89.3207689  55.4913112  30.5119051  88.4328224
  56.6984369  30.2269152  89.3008695  51.6881416  32.4813463  85.3104580
  51.1246281  32.3903400  84.5420867  51.5733811  31.6613367  85.7907072
  56.3114383  31.7812838  95.2793894  56.3003024  31.3865637  94.4074398
  56.4735023  31.0478911  95.8727666  49.2345848  33.9764655  88.1488800
  50.0267140  33.6355479  87.7335099  49.4742498  34.0859630  89.0690954
  57.2680975  36.1484431  80.6219045  56.6168954  36.7338511  80.2353058
  58.0625338  36.6790626  80.6814082  51.1936602  33.2373568  81.0206179
  51.9667478  32.6902555  80.8819055  51.5462001  34.1017817  81.2320640
  53.0321644  34.5649950  94.2273078  52.7411510  35.4695581  94.1119745
  53.6678629  34.6066478  94.9417148  53.9577851  31.9426799  90.8174438
  54.5541424  31.7182821  90.1031401  54.0152823  31.2011544  91.4199886
  53.5302880  29.3966234  78.6524629  53.7828400  28.8747755  77.8908092
  52.5927439  29.2332379  78.7551313  58.5746163  28.4002012  86.4599372
  59.3609252  27.9821436  86.1089789  58.8384867  29.3048105  86.6281021
  58.7456240  33.8374863  81.1588029  58.1102073  33.9109489  81.8708934
  58.4153646  34.4268462  80.4807108  63.9754590  28.3377246  87.3632351
  64.7079762  27.7676462  87.5970180  63.2193945  27.9498846  87.8038856
  53.2499168  31.2994340  80.8549004  53.1335427  30.6239243  81.5230088
  53.3601428  30.8126714  80.0381157  55.5930709  30.7604487  84.5595693
  55.2288917  30.2335108  85.2708615  56.4497825  30.3702956  84.3862179
  61.4980010  22.0498820  91.8226959  61.1663335  22.9194231  91.5988174
  60.9025623  21.7335104  92.5020990  55.2336196  25.7894387  79.5557042
  55.4010599  26.6574623  79.9227513  55.0433365  25.9521668  78.6318331
  57.9911530  34.2511366  91.2222872  57.6912253  35.1536404  91.1138679
  57.6462589  33.9843549  92.0744025  51.4424011  30.7025163  87.2559576
  50.5174507  30.5701377  87.4637268  51.6908424  31.4819382  87.7529519
  61.3908673  26.7693906  88.9020309  60.4825551  26.7009314  88.6079070
  61.3396269  27.2465851  89.7302135  55.2125417  28.2452044  80.5403708
  55.0925042  28.6909095  81.3789189  54.5178006  28.5937362  79.9817247
  48.8032822  30.3458436  88.0903365  48.9325203  30.5992915  89.0042777
  48.1230273  30.9386144  87.7708021  52.9732309  41.0155686  84.1893840
  52.8956339  41.9663511  84.2682320  52.3693953  40.6701559  84.8468766
  55.4649539  28.1883551  96.8455207  54.6882873  28.7477472  96.8358071
  56.1040102  28.6740334  97.3670077  63.2570320  24.9710344  90.6798183
  62.6144700  25.2642877  90.0337978  62.7525248  24.8563265  91.4851380
  60.9110483  28.7173517  81.3684042  61.8228339  28.9500904  81.1931740
  60.4020130  29.3010562  80.8059121  53.7195911  30.9969005  96.4073174
  54.4610596  31.5354049  96.1307997  53.0132897  31.6235294  96.5644725
  59.1951251  33.1398145  95.0045335  59.6034607  32.6980556  94.2599967
  58.4728513  32.5650773  95.2579528  55.5482321  28.0770752  92.3778892
  56.3943516  28.5010166  92.5213541  55.4880959  27.4204376  93.0717455
  59.5180066  33.6999336  88.7597624  58.8888928  33.8645050  88.0573692
  59.1305728  34.1140945  89.5308588  63.3969298  34.6353774  86.1141988
  62.7120336  35.0152675  85.5639021  63.4813147  35.2449100  86.8473935
  58.6981766  25.7375120  94.0360066  58.4542698  26.4917181  93.4994341
  58.9741697  26.1160468  94.8707313  60.6520229  32.2813733  92.7137331
  60.8637124  32.9245493  92.0371712  60.6049977  31.4476049  92.2459261
  58.2546458  24.8931553  89.6173903  57.3930937  25.1912807  89.9090641
  58.2808893  25.1101952  88.6854936  55.0708028  33.4373744  86.0247709
  55.5346373  33.7161447  85.2352332  54.8064826  32.5357189  85.8420800
  51.9632109  32.9845226  88.9627472  52.5333466  33.4132494  88.3244957
  52.5540220  32.7027810  89.6611658  54.0076914  29.5596896  82.8337274
  54.7100957  30.0117940  83.3011201  53.6757542  28.9180715  83.4617167
  52.4557275  28.1508653  97.2088484  51.8255936  28.8324934  97.4423880
  52.3493363  28.0391735  96.2641622  47.7502248  27.8180449  88.1354408
  46.9601302  28.0737978  87.6594518  48.2413495  28.6328787  88.2406448
  61.7666057  35.1585688  90.8859689  62.5883501  34.7565875  90.6042370
  61.7628460  35.0553922  91.8375804  49.7016993  28.1825028  85.0937884
  48.9048156  28.2943723  85.6121380  49.4742585  28.5211680  84.2278775
  55.5322661  34.7069731  93.0420399  55.5967093  35.1690139  93.8778571
  54.8233584  34.0767096  93.1702709  46.0339951  28.0710939  90.5669399
  46.2847989  28.9557949  90.8326974  46.5699499  27.8915541  89.7944490
  69.8572050  31.5024437  87.2344660  69.1035759  30.9331835  87.0788664
  69.9919591  31.4687101  88.1815295  55.2470678  36.3737839  82.9099379
  55.1116353  37.2189375  83.3384227  55.7880491  36.5757117  82.1465313
  51.7338018  22.4529419  99.5713735  51.3404963  21.8995617 100.2461379
  52.5504158  22.7639997  99.9620252  48.7000076  33.8913277  83.4827304
  49.2124596  34.6856527  83.6332869  49.3522788  33.1939567  83.4160906
  50.5094960  37.0079033  85.5650058  50.6861589  37.9296998  85.3771042
  51.3051794  36.6937453  85.9944437  54.6505979  23.8687298  97.1633991
  55.3915692  24.4694451  97.0838454  54.8823902  23.1264936  96.6052034
  49.7947317  29.0543665  95.4412221  49.6800832  28.1528922  95.7419320
  48.9391835  29.3007362  95.0897037  56.8739155  36.9961405  97.0399721
  56.4303009  36.2097784  96.7220626  57.5356368  37.1840556  96.3743612
  51.6326276  38.5257207  91.5660400  52.1833701  38.3974270  90.7937394
  50.7937752  38.8252096  91.2155293  58.9720393  37.2764205  95.0681123
  58.9538868  38.0973086  94.5761392  59.8940313  37.1518281  95.2931264
  55.4293447  34.7908335  95.9104631  55.9621784  34.0296623  95.6803939
  54.9007528  34.4981987  96.6528786  58.5963142  19.8968401  91.4398273
  58.2527411  20.7870043  91.3637383  58.9642104  19.7070058  90.5767858
  46.6648992  32.2201931  84.2586875  47.5024214  32.6298940  84.0420583
  46.8427260  31.2801373  84.2287069  58.5613425  29.8877012  79.9470708
  58.0460048  30.6581617  80.1859095  58.2890733  29.2142148  80.5703769
  56.1460536  24.7326713  85.0055946  55.2902132  24.3433563  84.8261585
  56.5587487  24.8118674  84.1455732  57.6759682  22.2673056  89.4047506
  57.1724478  22.2303191  88.5915311  57.9690289  23.1765799  89.4644163
  53.9202568  22.3511786  88.4113688  54.7855565  22.1554594  88.0519577
  53.9880077  22.1222138  89.3383045  63.5347699  32.6409367  81.8823881
  62.7577141  32.3020526  81.4379044  64.2139180  32.6461990  81.2078847
  58.3499728  27.7604104  81.7730489  58.0449863  28.0750253  82.6240632
  59.3030170  27.8385524  81.8157822  56.7946160  33.9194327  83.4223443
  56.2667521  33.1847087  83.1096681  56.2933662  34.6969004  83.1763411
  61.7739006  32.1143348  88.5390489  61.1162680  32.8042609  88.6270618
  62.5779405  32.5039780  88.8824476  51.5264887  24.5813994  85.7830055
  52.1008639  24.3589175  85.0503248  52.1135870  24.6502688  86.5358656
  60.5844464  30.4687721  86.5894431  61.0976346  31.1017712  87.0916141
  61.2345688  29.8688916  86.2237791  51.8534474  26.6118455  79.8025940
  51.0171787  26.9493141  80.1235215  51.7139244  26.4767434  78.8653077
  53.8287555  21.4555243  84.5105124  53.1751967  21.1404260  83.8861739
  53.7868029  20.8330983  85.2364947  54.9398760  31.7374538  76.4258416
  54.0325821  31.5063791  76.6249565  55.4369792  30.9412157  76.6132398
  57.8466839  40.4472045  79.3455102  57.1728537  40.7503742  79.9540060
  58.2332661  41.2501125  78.9960559  57.0625295  27.9437176  88.8352772
  56.1447857  28.1652123  88.6774460  57.4785439  28.0183487  87.9764479
  57.8460343  29.3428592  83.9655452  58.5932162  29.8549989  83.6562574
  58.1151933  29.0212645  84.8259846  56.1186993  31.8387133  80.9482406
  55.2098212  31.5546165  81.0454876  56.1482077  32.2586211  80.0885713
  61.3506261  35.4493722  84.7173574  60.8968588  34.6084632  84.7738764
  60.7200227  36.0855120  85.0548354  60.2939180  26.3785708  85.9474241
  59.5561937  25.8663094  86.2784484  60.5465954  25.9386090  85.1357518
  59.7939200  37.2870219  85.6523392  60.0862174  37.8475276  84.9335758
  60.3037820  37.5798780  86.4076551  60.3950807  19.1561960  86.5416011
  60.7009684  18.2959323  86.2541926  61.1203412  19.7479580  86.3415004
  46.6875164  29.5592647  84.9297608  46.4899563  28.9662007  84.2048675
  46.1321828  29.2544857  85.6473547  54.6671887  29.4515753  87.0492202
  54.7220497  28.4989590  86.9734678  53.8563089  29.6075192  87.5333500
  55.8163081  33.3795876  78.2870485  55.3782511  32.6631735  77.8276122
  56.5573522  33.6071991  77.7255576  52.6064247  28.0692813  84.8082580
  51.7932113  28.3686983  85.2147773  53.1023241  27.6748502  85.5257063
  54.7572825  38.0650570  86.7416845  54.7149004  38.2911416  85.8125377
  55.6735524  37.8313944  86.8902646  58.2038459  28.5334637  93.6397474
  58.5587847  28.7606110  94.4991940  58.8510590  28.8653014  93.0174730
  63.9336196  31.6553073  84.3446803  63.7954094  31.8454669  83.4167993
  63.5772415  32.4172456  84.8014855  52.0978322  25.6411168  90.4243815
  52.7377701  25.4999927  89.7266779  51.2655852  25.3545682  90.0482417
  63.9605575  33.7229600  89.3558075  64.3942082  33.6304889  90.2041129
  64.6737156  33.6987101  88.7178091  52.8738626  34.9413599  86.5378808
  53.6679224  34.4463919  86.3361383  52.1630318  34.4131462  86.1746513
  57.6933470  37.3231694  90.8891176  57.7470493  37.8922631  91.6568891
  56.8248252  37.4933579  90.5245213  49.1821389  29.0856681  82.6138561
  48.2518977  29.0241136  82.8308523  49.2778861  28.5632633  81.8175202
  49.1006938  25.6111493  85.2016802  49.3613756  26.5256827  85.0925963
  49.9224111  25.1435936  85.3513415  50.5731864  27.0249251  92.3715627
  51.2454917  26.8166613  91.7228276  49.7461650  26.8271337  91.9320859
  64.8221125  33.7653301  91.8890960  65.0157015  34.6699111  92.1350235
  64.7221743  33.3060720  92.7229545  56.4757436  23.6511191  94.3881288
  55.8285351  24.3501141  94.2945764  57.2458451  24.0847335  94.7557536
  59.8836234  33.9160044  97.4631841  59.7321740  33.6870595  96.5461925
  59.8740913  34.8730645  97.4763186  56.6521570  31.4891956  92.4478107
  57.5813630  31.6403116  92.2747075  56.2312600  31.5775977  91.5926754
  55.4509902  35.5142621  90.2176645  55.3120987  35.1461405  91.0902583
  54.6624498  36.0290260  90.0460603  56.0458054  40.6151717  81.5602182
  56.2209809  40.1439760  82.3747804  55.3590842  41.2417483  81.7883442
  57.0015117  34.8924223  87.6065483  56.6664950  34.8524993  88.5023133
  56.5019063  34.2268939  87.1335893  50.9759361  30.2991854  93.1318064
  50.8379159  29.5672092  93.7329603  51.8864284  30.2100754  92.8502252
  59.9374309  32.2380258  77.8802542  59.3203479  31.5127086  77.7835595
  59.4690797  32.9989618  77.5369617  53.6041662  30.0111813  92.6201744
  54.3141280  29.3705005  92.5788362  53.5610970  30.2624708  93.5427924
  61.5928440  36.9479166  95.5408323  61.5340986  36.2638386  94.8738906
  61.9947959  37.6898156  95.0888949  52.3170596  26.9977031  94.4397383
  51.7807953  26.5467769  95.0918979  51.7287304  27.1322940  93.6967847
  50.6119139  43.7641080  88.3342042  50.8515737  44.3959604  89.0121060
  49.7688336  43.4129120  88.6207401  51.7272854  26.4565682  77.0023847
  50.8502321  26.3354483  76.6386093  52.2030608  25.6651760  76.7502735
  61.5945848  34.9118750  93.7722302  60.7072626  34.5744672  93.8948701
  62.1644399  34.1801781  94.0091068  43.2474995  31.2442842  87.0965354
  43.9346034  30.9304572  86.5086369  43.0923123  32.1484206  86.8232605
  48.0509717  26.1333038  91.5250378  47.9667906  25.5258708  90.7900787
  47.2292423  26.6242057  91.5259874  55.1247001  39.5720202  90.7383546
  55.0517172  40.3775174  91.2502850  54.6824394  39.7712168  89.9131567
  54.9136781  38.8091972  84.2486367  54.1304302  39.3513653  84.3424592
  55.6129526  39.3265952  84.6480608  58.2233431  24.6186602  86.8920573
  58.7202130  23.8656564  86.5721643  57.4520412  24.6550919  86.3263782
  66.0763188  30.3226967  88.5338864  66.0653064  31.2051683  88.1632797
  65.2080567  29.9698518  88.3393401  57.5845684  39.4707036  92.8941704
  58.2973657  40.1054501  92.8217606  57.0935713  39.5670902  92.0781706
  59.3063211  33.3758289  84.4658996  58.3719490  33.4959752  84.2963700
  59.4839880  32.4730756  84.2019006  54.8068399  26.7603985  86.6192257
  54.4366187  26.2075025  87.3073163  55.3027492  26.1562118  86.0667257
  62.6935763  29.2175608  85.0009030  63.1596215  30.0503600  84.9269333
  63.1443263  28.7520590  85.7054289  52.6357598  37.2201480  93.7147275
  53.3367057  37.8537963  93.8676669  52.1652713  37.5616211  92.9542914
  60.7611994  35.5619430  81.9995182  61.0371838  35.4476024  82.9089056
  59.8916493  35.1636915  81.9607355  60.6652425  21.5856195  89.0399931
  59.7515505  21.8160422  89.2082138  61.0945527  21.6694640  89.8913964
  60.4358884  29.7746087  91.5399825  59.7830334  30.0221995  90.8852278
  60.8139264  28.9610226  91.2062303  57.3966058  39.8105781  85.6427996
  57.5788452  38.9927437  86.1055748  58.2199044  40.0273473  85.2052886
  57.7308223  38.7373966  82.9043044  58.2595990  38.2266420  82.2913206
  57.9936443  38.4216496  83.7688577  56.4846457  30.5165898  98.0265863
  55.8087094  30.4160028  98.6968238  57.3074091  30.3605112  98.4901860
  48.2325316  36.7537835  90.6478378  48.8178753  36.0081523  90.7806282
  48.0350154  37.0641792  91.5315042  51.0863971  39.7889082  85.6640820
  50.4174347  40.2735210  85.1804860  50.9476841  40.0358303  86.5784199
  42.8242971  29.3243435  89.3682821  42.8627070  28.7907026  90.1619939
  42.3183264  28.7978641  88.7493798  55.2269240  41.8232826  92.2623479
  55.7787548  41.9864447  93.0272564  55.5675433  42.4137264  91.5903503
  50.2033733  24.1707976  92.8645363  50.2675060  25.0322807  92.4522761
  50.1400853  23.5581977  92.1317722  49.6786006  26.2431108  96.5118398
  50.3058044  25.8608186  97.1255922  48.8213924  26.0245310  96.8774090
  60.0780114  36.6494083  98.1172133  60.6220018  37.2624042  97.6227088
  59.4966959  37.2073662  98.6339146  46.4551548  28.0507537  82.4436752
  46.7504989  27.1418216  82.3903806  45.5539584  28.0295277  82.1217755
  58.3637627  39.7714801  89.2487161  58.2388767  38.9704541  88.7398106
  59.0216718  40.2660995  88.7601131  49.9845795  26.1263534  88.4264301
  49.2632381  26.7399502  88.2871774  50.7739051  26.6621299  88.3480947
  60.4272535  37.5723822  90.8766711  59.4802871  37.4529173  90.8045038
  60.7755309  36.6846320  90.9592972  52.7872109  23.4617960  94.7004953
  53.3106511  23.7080257  95.4631262  52.5684442  24.2937995  94.2808090
  48.1839390  25.7321635  82.5676078  47.8552096  24.8519014  82.3851183
  48.5378761  25.6769304  83.4552467  57.4318969  37.3676538  87.0771063
  57.2843931  36.4393245  87.2578633  58.2572462  37.3896628  86.5928138
  51.2981213  26.0194605  82.9351555  51.6377286  26.5480526  82.2130164
  51.7453334  26.3575011  83.7110122  61.0353091  38.1905096  88.1635936
  61.9599638  37.9847958  88.0260387  60.8668394  37.9421498  89.0725277
  53.9924654  24.4031656  92.3854623  53.6521474  23.6039469  92.7875303
  53.2863660  24.7033366  91.8131456  54.6441126  21.4880968  90.8381946
  55.4667195  21.0141446  90.7160837  54.8879189  22.2671452  91.3380633
  53.2849360  24.5169226  81.1344848  54.0057723  24.8950479  80.6308565
  52.6614664  25.2358103  81.2379826  57.4280483  25.2214375  82.0703180
  57.6444097  26.1039013  81.7692008  56.9474550  24.8300589  81.3408822
  52.1679704  28.1800089  88.6473925  52.0224285  28.4940392  89.5398206
  51.6904908  28.7984989  88.0944824  54.0276087  25.1702637  88.6954814
  54.0137656  24.2743730  88.3587112  54.7448515  25.1773300  89.3293100
  55.8802218  25.6039977  90.7407942  55.6219996  26.5257047  90.7392272
  55.3487258  25.2070411  91.4308406  60.8248407  38.7090764  83.5198027
  60.9985284  38.1437186  82.7671880  61.3177298  39.5091659  83.3377517
  46.6425367  30.7205433  91.5861586  46.0978835  31.4965241  91.7181860
  47.5204717  31.0676237  91.4280707  53.4312983  24.0517017  83.9642385
  53.5528894  23.1233663  84.1633272  53.1415026  24.0655703  83.0520700
  56.3004174  21.7371927  87.1009104  56.3225871  21.8011260  86.1461084
  56.7172233  20.8976436  87.2949611  66.6787798  31.4727187  85.1388327
  67.1218944  30.7234512  84.7407450  65.8014308  31.4637323  84.7562059
  61.8123579  38.0257528  80.6194926  62.5074484  38.6464221  80.8382240
  62.1546729  37.1752880  80.8947303  47.4291389  29.8475329  94.4791743
  46.6873125  29.9957965  95.0656373  47.1084133  30.1083595  93.6158492
  63.7115002  35.4757234  82.1482256  64.2366327  35.8144507  81.4231576
  63.6237355  34.5404249  81.9645391  55.3735051  39.3891308  94.2772133
  55.6822178  39.1440454  95.1494833  56.1710533  39.5937946  93.7891003
  55.3955663  41.5429217  86.5077509  54.9560653  41.0505596  87.2010366
  56.1463780  41.0002185  86.2669585  47.8748002  37.7340758  86.5102138
  48.7006022  37.4344530  86.1300781  47.5242054  36.9648380  86.9591926
  52.8429535  37.0867226  88.5799811  52.2209545  36.4237931  88.2802039
  53.5134402  37.1128358  87.8973459  46.0756607  35.6527084  87.4691071
  45.2388516  35.2249259  87.2875072  46.0480253  35.8459528  88.4061862
  52.9154063  25.5649014  98.1732317  52.9642218  26.4411137  97.7910087
  53.4576577  25.0226407  97.6003960  63.4008909  36.1090137  97.4533454
  62.6104452  36.0914276  96.9137954  63.1642263  36.6478431  98.2082491
  63.5206784  32.9582604  94.7666183  63.5704788  32.7932611  95.7081706
  63.4120707  32.0909863  94.3764064  52.4043042  35.6371150  82.0558272
  52.5531163  36.3206614  81.4024944  53.2109486  35.6176240  82.5707727
  60.8110546  28.9413532  96.0825490  61.7120409  28.8019997  95.7909487
  60.8858520  29.1067987  97.0223667  55.1453351  26.3180387  94.9278676
  54.2756661  26.6113953  94.6561264  55.3812832  26.9020832  95.6485939
  65.0224980  35.3779545  95.0108204  64.7309789  35.7409526  95.8471665
  64.4097112  34.6646554  94.8321536  66.2220663  32.9432425  87.5310775
  67.0567554  33.3822229  87.6948335  66.3579792  32.4671078  86.7119020
  63.2712169  30.5012160  93.4788262  63.7466290  30.6939806  92.6707114
  62.3477734  30.5571346  93.2331646  50.1595675  31.6636327  83.0619341
  49.9141717  30.7598657  83.2599551  50.3291590  31.6653478  82.1198819
  57.8492385  22.5360004  92.4444096  58.3674329  23.2721031  92.1190585
  57.4947518  22.8423997  93.2790855  49.4291323  27.3964685  80.5605502
  48.7360568  27.4709040  79.9045538  49.1843075  26.6325028  81.0827019
  58.1004979  18.9560286  87.9644993  58.3806733  18.2883475  88.5905419
  58.8855586  19.1489382  87.4519657  55.9038448  38.1319280  79.5270019
  55.3312415  38.7509467  79.0740491  56.4771241  38.6818642  80.0609941
  61.9713838  27.3777920  91.7116568  62.9231261  27.4776018  91.7328792
  61.8017288  26.5856189  92.2214652  59.9928217  24.4633503  91.8975969
  59.3978149  24.7438516  91.2022457  59.7077914  24.9527404  92.6692710
  59.1235708  38.4156430  80.6578601  60.0566381  38.3501992  80.8611477
  59.0358920  39.2512697  80.1993134  61.7523724  37.7322300  77.6182549
  61.6737356  37.3982164  78.5118307  62.5733391  38.2244068  77.6174021
  64.4501915  30.5984040  90.8258868  64.4178236  29.6600041  91.0118551
  65.0602539  30.6768077  90.0924692  56.2885246  29.4680093  76.8686072
  57.2344351  29.3386301  76.9374490  55.9099491  28.7294755  77.3455500
  64.5996404  27.3895083  90.8717151  64.0835453  26.6053540  90.6847080
  65.4836352  27.0613800  91.0363670  62.2607131  21.1336099  86.8312963
  62.0631952  20.8251187  87.7156295  62.8706836  21.8597738  86.9610893
  70.2678465  31.6600047  89.9664904  70.9981854  31.3985335  90.5272608
  69.6585411  30.9228769  90.0066972  68.3493762  29.8007909  90.5639356
  67.6226926  29.6663874  89.9555847  67.9341049  30.1084738  91.3696074
  56.1723939  33.5197839  98.3286729  57.0926948  33.6976438  98.5226775
  56.1373522  32.5753884  98.1766428  54.4728163  27.3930069  76.8040957
  53.5659619  27.0963182  76.8803670  54.7504144  27.0959887  75.9375243
  45.3906104  28.7136433  87.2540003  45.0708888  27.8601741  86.9614377
  44.8439532  28.9285011  88.0097971  49.1686011  31.4298874  90.9709510
  49.3872021  32.3615981  90.9897544  49.5811785  31.0706848  91.7564314
  56.0890229  21.9366959  82.9585198  55.2790957  21.5914044  83.3340444
  56.7774646  21.6274503  83.5472810  58.0180777  21.0145006  84.5809495
  58.5711816  21.4340459  85.2399518  58.2550864  20.0880754  84.6232451
  54.0413877  27.0032079 100.3612259  53.9410604  27.9526436 100.2924350
  53.8235419  26.6750318  99.4888329  53.2426948  24.2517004  76.9452936
  54.1046112  24.5771903  77.2048753  53.4277292  23.4648500  76.4326002
  45.2594364  32.3339344  89.2233125  44.5657835  31.9193297  88.7103079
  46.0067355  32.3759881  88.6266544  61.3959585  23.1245531  84.0888159
  60.8158254  23.7830335  83.7066211  61.1295517  22.3022875  83.6775577
  59.8463151  22.5250589  86.2909479  60.3462929  22.6367123  85.4823798
  60.4898759  22.2211641  86.9310288  53.9045147  30.4329218  99.1777320
  53.4212228  31.2329578  99.3841209  53.9906086  30.4437163  98.2244764
  47.1731106  32.2657598  87.0999140  47.1501794  32.3645285  86.1481023
  47.4831743  33.1122749  87.4216306  49.8318484  34.3233753  91.2145754
  50.7861738  34.2917695  91.1475686  49.6331008  33.8624377  92.0295980
  50.4217866  32.8934869  93.7816552  51.2410755  33.3878948  93.8051389
  50.6954674  31.9766837  93.7534119  60.1784463  25.2845621  83.1444507
  59.2910318  25.5695272  82.9264702  60.5938452  25.1239385  82.2971784
  63.5298999  25.3092142  86.8598847  64.3059389  25.7988595  87.1323463
  62.8047133  25.7350196  87.3170716  65.9671557  26.0219761  87.9172787
  66.5616048  25.7815497  87.2066095  66.0398141  25.3026892  88.5446323
  48.1868713  39.8653372  88.2315952  48.0523181  39.1053773  87.6653950
  47.7700775  40.5894272  87.7644741  59.3227676  35.0490296  77.2392527
  60.0263526  35.2540298  77.8550183  58.5990325  35.6167058  77.5041611
  60.1525486  30.8000157  83.3594797  60.0960688  31.2568709  82.5202430
  60.7053829  30.0390842  83.1817640  63.9630292  26.5889889  84.1844917
  63.7067226  26.1886525  85.0153125  63.3383160  27.3033683  84.0595056
  68.2742630  29.3285962  86.6916208  67.7142188  29.3979152  87.4647770
  67.6686133  29.1526947  85.9715705  51.3437839  40.7622689  88.4434395
  51.2270223  41.7068122  88.3413085  50.5230285  40.4596251  88.8320194
  61.2314373  35.4872825  79.2890987  62.0659977  35.0554024  79.1068462
  61.0698716  35.3154839  80.2167882  60.8860266  31.9904938  80.6547327
  60.8309069  31.8249210  79.7135771  60.2606321  32.6980971  80.8109516
  45.6752781  27.2273003  94.4808749  46.3211644  26.7171957  94.9695974
  45.4669932  27.9641684  95.0552174  58.2006173  34.2953850  99.9800889
  59.0697332  34.4694503  99.6187524  57.7212924  35.1148267  99.8576619
  54.1956391  21.4913047  80.2332645  54.1835061  22.4354887  80.3900916
  55.0879813  21.3083193  79.9392106  52.3692353  41.4150951  91.6590323
  53.2719600  41.4474562  91.9756818  52.1429723  40.4851402  91.6736659
  54.1245955  40.1681938  88.3200402  53.1741586  40.1683799  88.2064774
  54.4278441  39.4214672  87.8036436  58.0108511  18.0855824  84.4878582
  57.2440906  17.5314311  84.6335264  58.4219215  18.1577693  85.3492733
  50.0150272  24.3740620  98.5783763  50.8781733  24.0177425  98.7887088
  49.4415682  24.0354515  99.2659167  69.8598649  46.0042476  89.3846164
  70.4977058  45.8849224  88.6809504  69.7419491  46.9523320  89.4434116
  66.6688355  45.9569904  89.3207689  66.3306866  45.8410969  88.4328224
  67.5378123  45.5561069  89.3008695  62.5275170  47.8105381  85.3104580
  61.9640036  47.7195318  84.5420867  62.4127566  46.9905285  85.7907072
  67.1508138  47.1104756  95.2793894  67.1396779  46.7157554  94.4074398
  67.3128777  46.3770829  95.8727666  60.0739602  49.3056572  88.1488800
  60.8660894  48.9647397  87.7335099  60.3136253  49.4151547  89.0690954
  63.8715399  49.8941868  94.2273078  63.5805265  50.7987499  94.1119745
  64.5072383  49.9358395  94.9417148  64.7971606  47.2718716  90.8174438
  65.3935178  47.0474739  90.1031401  64.8546577  46.5303462  91.4199886
  64.3696634  44.7258152  78.6524629  64.6222155  44.2039673  77.8908092
  63.4321193  44.5624297  78.7551313  69.4139917  43.7293930  86.4599372
  70.2003006  43.3113353  86.1089789  69.6778621  44.6340022  86.6281021
  69.5849994  49.1666780  81.1588029  68.9495827  49.2401407  81.8708934
  69.2547401  49.7560379  80.4807108  74.8148344  43.6669163  87.3632351
  75.5473516  43.0968380  87.5970180  74.0587700  43.2790764  87.8038856
  66.4324464  46.0896405  84.5595693  66.0682671  45.5627026  85.2708615
  67.2891580  45.6994874  84.3862179  72.3373764  37.3790737  91.8226959
  72.0057089  38.2486148  91.5988174  71.7419378  37.0627021  92.5020990
  66.0729951  41.1186304  79.5557042  66.2404353  41.9866541  79.9227513
  65.8827120  41.2813586  78.6318331  68.8305284  49.5803283  91.2222872
  68.5306007  50.4828322  91.1138679  68.4856344  49.3135467  92.0744025
  62.2817765  46.0317080  87.2559576  61.3568262  45.8993294  87.4637268
  62.5302179  46.8111299  87.7529519  72.2302428  42.0985824  88.9020309
  71.3219305  42.0301232  88.6079070  72.1790024  42.5757768  89.7302135
  66.0519172  43.5743962  80.5403708  65.9318797  44.0201013  81.3789189
  65.3571760  43.9229280  79.9817247  59.6426577  45.6750354  88.0903365
  59.7718958  45.9284833  89.0042777  58.9624028  46.2678062  87.7708021
  63.8126064  56.3447604  84.1893840  63.7350094  57.2955429  84.2682320
  63.2087707  55.9993476  84.8468766  66.3043294  43.5175469  96.8455207
  65.5276628  44.0769389  96.8358071  66.9433857  44.0032252  97.3670077
  74.0964074  40.3002262  90.6798183  73.4538454  40.5934795  90.0337978
  73.5919003  40.1855182  91.4851380  71.7504238  44.0465435  81.3684042
  72.6622094  44.2792822  81.1931740  71.2413885  44.6302479  80.8059121
  64.5589666  46.3260922  96.4073174  65.3004350  46.8645966  96.1307997
  63.8526651  46.9527211  96.5644725  70.0345006  48.4690063  95.0045335
  70.4428362  48.0272473  94.2599967  69.3122267  47.8942690  95.2579528
  66.3876076  43.4062670  92.3778892  67.2337271  43.8302083  92.5213541
  66.3274713  42.7496294  93.0717455  70.3573820  49.0291254  88.7597624
  69.7282683  49.1936968  88.0573692  69.9699482  49.4432863  89.5308588
  74.2363052  49.9645691  86.1141988  73.5514090  50.3444593  85.5639021
  74.3206901  50.5741018  86.8473935  69.5375521  41.0667038  94.0360066
  69.2936453  41.8209099  93.4994341  69.8135451  41.4452386  94.8707313
  71.4913984  47.6105650  92.7137331  71.7030879  48.2537410  92.0371712
  71.4443732  46.7767967  92.2459261  69.0940213  40.2223471  89.6173903
  68.2324692  40.5204725  89.9090641  69.1202647  40.4393870  88.6854936
  65.9101782  48.7665662  86.0247709  66.3740128  49.0453365  85.2352332
  65.6458580  47.8649106  85.8420800  62.8025863  48.3137143  88.9627472
  63.3727220  48.7424412  88.3244957  63.3933975  48.0319728  89.6611658
  64.8470668  44.8888814  82.8337274  65.5494711  45.3409858  83.3011201
  64.5151297  44.2472633  83.4617167  63.2951030  43.4800571  97.2088484
  62.6649690  44.1616852  97.4423880  63.1887118  43.3683652  96.2641622
  58.5896002  43.1472367  88.1354408  57.7995056  43.4029895  87.6594518
  59.0807249  43.9620705  88.2406448  72.6059812  50.4877606  90.8859689
  73.4277255  50.0857793  90.6042370  72.6022214  50.3845840  91.8375804
  60.5410747  43.5116946  85.0937884  59.7441911  43.6235640  85.6121380
  60.3136340  43.8503598  84.2278775  66.3716415  50.0361649  93.0420399
  66.4360848  50.4982056  93.8778571  65.6627339  49.4059014  93.1702709
  56.8733705  43.4002857  90.5669399  57.1241743  44.2849867  90.8326974
  57.4093253  43.2207459  89.7944490  80.6965805  46.8316354  87.2344660
  79.9429513  46.2623752  87.0788664  80.8313346  46.7979019  88.1815295
  66.0864433  51.7029757  82.9099379  65.9510108  52.5481292  83.3384227
  66.6274245  51.9049034  82.1465313  62.5731772  37.7821337  99.5713735
  62.1798718  37.2287535 100.2461379  63.3897913  38.0931915  99.9620252
  59.5393830  49.2205195  83.4827304  60.0518351  50.0148445  83.6332869
  60.1916543  48.5231485  83.4160906  61.3488715  52.3370951  85.5650058
  61.5255343  53.2588916  85.3771042  62.1445548  52.0229370  85.9944437
  65.4899733  39.1979216  97.1633991  66.2309447  39.7986369  97.0838454
  65.7217656  38.4556853  96.6052034  60.6341071  44.3835583  95.4412221
  60.5194587  43.4820840  95.7419320  59.7785589  44.6299280  95.0897037
  67.7132909  52.3253323  97.0399721  67.2696763  51.5389702  96.7220626
  68.3750123  52.5132474  96.3743612  62.4720030  53.8549125  91.5660400
  63.0227455  53.7266188  90.7937394  61.6331506  54.1544014  91.2155293
  69.8114147  52.6056123  95.0681123  69.7932623  53.4265004  94.5761392
  70.7334067  52.4810198  95.2931264  66.2687201  50.1200253  95.9104631
  66.8015538  49.3588541  95.6803939  65.7401282  49.8273904  96.6528786
  69.4356896  35.2260319  91.4398273  69.0921166  36.1161960  91.3637383
  69.8035859  35.0361976  90.5767858  69.4007179  45.2168930  79.9470708
  68.8853802  45.9873534  80.1859095  69.1284487  44.5434066  80.5703769
  66.9854290  40.0618630  85.0055946  66.1295886  39.6725481  84.8261585
  67.3981242  40.1410591  84.1455732  68.5153437  37.5964974  89.4047506
  68.0118232  37.5595109  88.5915311  68.8084044  38.5057716  89.4644163
  64.7596323  37.6803703  88.4113688  65.6249319  37.4846512  88.0519577
  64.8273831  37.4514055  89.3383045  74.3741453  47.9701284  81.8823881
  73.5970896  47.6312444  81.4379044  75.0532934  47.9753907  81.2078847
  69.1893482  43.0896022  81.7730489  68.8843618  43.4042171  82.6240632
  70.1423924  43.1677442  81.8157822  67.6339914  49.2486245  83.4223443
  67.1061276  48.5139005  83.1096681  67.1327417  50.0260921  83.1763411
  72.6132760  47.4435266  88.5390489  71.9556434  48.1334527  88.6270618
  73.4173159  47.8331697  88.8824476  62.3658642  39.9105911  85.7830055
  62.9402394  39.6881093  85.0503248  62.9529624  39.9794606  86.5358656
  71.4238219  45.7979638  86.5894431  71.9370101  46.4309630  87.0916141
  72.0739443  45.1980834  86.2237791  62.6928229  41.9410372  79.8025940
  61.8565541  42.2785059  80.1235215  62.5532998  41.8059352  78.8653077
  64.6681309  36.7847160  84.5105124  64.0145722  36.4696177  83.8861739
  64.6261783  36.1622901  85.2364947  67.9019050  43.2729094  88.8352772
  66.9841611  43.4944041  88.6774460  68.3179193  43.3475404  87.9764479
  68.6854097  44.6720509  83.9655452  69.4325916  45.1841907  83.6562574
  68.9545687  44.3504562  84.8259846  66.9580748  47.1679050  80.9482406
  66.0491967  46.8838083  81.0454876  66.9875831  47.5878129  80.0885713
  72.1900015  50.7785640  84.7173574  71.7362342  49.9376550  84.7738764
  71.5593982  51.4147038  85.0548354  71.1332935  41.7077626  85.9474241
  70.3955691  41.1955012  86.2784484  71.3859708  41.2678007  85.1357518
  70.6332954  52.6162136  85.6523392  70.9255929  53.1767193  84.9335758
  71.1431575  52.9090697  86.4076551  71.2344562  34.4853878  86.5416011
  71.5403439  33.6251241  86.2541926  71.9597167  35.0771498  86.3415004
  57.5268918  44.8884564  84.9297608  57.3293318  44.2953925  84.2048675
  56.9715582  44.5836774  85.6473547  65.5065642  44.7807671  87.0492202
  65.5614251  43.8281507  86.9734678  64.6956844  44.9367110  87.5333500
  63.4458002  43.3984731  84.8082580  62.6325867  43.6978901  85.2147773
  63.9416996  43.0040419  85.5257063  65.5966580  53.3942487  86.7416845
  65.5542758  53.6203334  85.8125377  66.5129278  53.1605862  86.8902646
  69.0432213  43.8626555  93.6397474  69.3981601  44.0898028  94.4991940
  69.6904345  44.1944932  93.0174730  74.7729950  46.9844991  84.3446803
  74.6347849  47.1746587  83.4167993  74.4166169  47.7464374  84.8014855
  62.9372076  40.9703086  90.4243815  63.5771456  40.8291845  89.7266779
  62.1049607  40.6837599  90.0482417  74.7999330  49.0521518  89.3558075
  75.2335837  48.9596807  90.2041129  75.5130911  49.0279018  88.7178091
  63.7132380  50.2705516  86.5378808  64.5072979  49.7755837  86.3361383
  63.0024073  49.7423380  86.1746513  68.5327225  52.6523612  90.8891176
  68.5864247  53.2214548  91.6568891  67.6642006  52.8225497  90.5245213
  60.0215144  44.4148598  82.6138561  59.0912732  44.3533054  82.8308523
  60.1172616  43.8924551  81.8175202  59.9400693  40.9403411  85.2016802
  60.2007510  41.8548744  85.0925963  60.7617865  40.4727854  85.3513415
  61.4125618  42.3541168  92.3715627  62.0848672  42.1458530  91.7228276
  60.5855405  42.1563254  91.9320859  75.6614879  49.0945219  91.8890960
  75.8550769  49.9991029  92.1350235  75.5615498  48.6352638  92.7229545
  67.3151190  38.9803109  94.3881288  66.6679105  39.6793059  94.2945764
  68.0852206  39.4139253  94.7557536  70.7229988  49.2451961  97.4631841
  70.5715494  49.0162513  96.5461925  70.7134668  50.2022563  97.4763186
  67.4915324  46.8183874  92.4478107  68.4207384  46.9695034  92.2747075
  67.0706355  46.9067895  91.5926754  66.2903656  50.8434538  90.2176645
  66.1514742  50.4753323  91.0902583  65.5018253  51.3582178  90.0460603
  66.8851808  55.9443635  81.5602182  67.0603564  55.4731678  82.3747804
  66.1984596  56.5709401  81.7883442  67.8408871  50.2216141  87.6065483
  67.5058704  50.1816911  88.5023133  67.3412817  49.5560857  87.1335893
  61.8153115  45.6283771  93.1318064  61.6772913  44.8964010  93.7329603
  62.7258039  45.5392671  92.8502252  70.7768063  47.5672175  77.8802542
  70.1597234  46.8419004  77.7835595  70.3084552  48.3281536  77.5369617
  64.4435416  45.3403731  92.6201744  65.1535035  44.6996923  92.5788362
  64.4004724  45.5916625  93.5427924  72.4322195  52.2771084  95.5408323
  72.3734741  51.5930304  94.8738906  72.8341713  53.0190074  95.0888949
  63.1564350  42.3268948  94.4397383  62.6201707  41.8759687  95.0918979
  62.5681058  42.4614857  93.6967847  62.5666609  41.7857600  77.0023847
  61.6896075  41.6646401  76.6386093  63.0424362  40.9943678  76.7502735
  72.4339602  50.2410668  93.7722302  71.5466381  49.9036590  93.8948701
  73.0038153  49.5093699  94.0091068  54.0868749  46.5734760  87.0965354
  54.7739789  46.2596490  86.5086369  53.9316878  47.4776124  86.8232605
  58.8903471  41.4624956  91.5250378  58.8061660  40.8550626  90.7900787
  58.0686178  41.9533974  91.5259874  65.9640755  54.9012120  90.7383546
  65.8910927  55.7067092  91.2502850  65.5218149  55.1004086  89.9131567
  65.7530535  54.1383890  84.2486367  64.9698057  54.6805570  84.3424592
  66.4523280  54.6557870  84.6480608  69.0627185  39.9478520  86.8920573
  69.5595885  39.1948482  86.5721643  68.2914167  39.9842836  86.3263782
  76.9156943  45.6518885  88.5338864  76.9046819  46.5343601  88.1632797
  76.0474322  45.2990436  88.3393401  68.4239439  54.7998954  92.8941704
  69.1367411  55.4346419  92.8217606  67.9329468  54.8962820  92.0781706
  70.1456966  48.7050207  84.4658996  69.2113245  48.8251669  84.2963700
  70.3233634  47.8022674  84.2019006  65.6462154  42.0895903  86.6192257
  65.2759941  41.5366943  87.3073163  66.1421246  41.4854036  86.0667257
  73.5329517  44.5467526  85.0009030  73.9989969  45.3795518  84.9269333
  73.9837018  44.0812508  85.7054289  63.4751352  52.5493398  93.7147275
  64.1760812  53.1829881  93.8676669  63.0046467  52.8908129  92.9542914
  71.6005748  50.8911347  81.9995182  71.8765592  50.7767942  82.9089056
  70.7310247  50.4928832  81.9607355  71.5046180  36.9148113  89.0399931
  70.5909260  37.1452340  89.2082138  71.9339281  36.9986557  89.8913964
  71.2752638  45.1038005  91.5399825  70.6224089  45.3513913  90.8852278
  71.6533018  44.2902143  91.2062303  68.2359812  55.1397698  85.6427996
  68.4182207  54.3219354  86.1055748  69.0592798  55.3565391  85.2052886
  68.5701978  54.0665883  82.9043044  69.0989744  53.5558338  82.2913206
  68.8330197  53.7508414  83.7688577  67.3240211  45.8457816  98.0265863
  66.6480848  45.7451945  98.6968238  68.1467845  45.6897030  98.4901860
  59.0719071  52.0829753  90.6478378  59.6572507  51.3373441  90.7806282
  58.8743909  52.3933709  91.5315042  61.9257726  55.1181000  85.6640820
  61.2568101  55.6027128  85.1804860  61.7870595  55.3650221  86.5784199
  53.6636725  44.6535353  89.3682821  53.7020825  44.1198944  90.1619939
  53.1577018  44.1270558  88.7493798  66.0662994  57.1524744  92.2623479
  66.6181302  57.3156365  93.0272564  66.4069188  57.7429181  91.5903503
  61.0427488  39.4999893  92.8645363  61.1068814  40.3614724  92.4522761
  60.9794608  38.8873895  92.1317722  60.5179760  41.5723026  96.5118398
  61.1451799  41.1900103  97.1255922  59.6607679  41.3537228  96.8774090
  70.9173869  51.9786001  98.1172133  71.4613773  52.5915959  97.6227088
  70.3360713  52.5365580  98.6339146  57.2945303  43.3799455  82.4436752
  57.5898744  42.4710133  82.3903806  56.3933339  43.3587194  82.1217755
  69.2031382  55.1006719  89.2487161  69.0782521  54.2996459  88.7398106
  69.8610473  55.5952912  88.7601131  60.8239550  41.4555452  88.4264301
  60.1026136  42.0691419  88.2871774  61.6132806  41.9913216  88.3480947
  71.2666290  52.9015739  90.8766711  70.3196626  52.7821090  90.8045038
  71.6149063  52.0138237  90.9592972  63.6265863  38.7909878  94.7004953
  64.1500265  39.0372175  95.4631262  63.4078197  39.6229913  94.2808090
  59.0233144  41.0613553  82.5676078  58.6945851  40.1810932  82.3851183
  59.3772515  41.0061221  83.4552467  68.2712723  52.6968455  87.0771063
  68.1237686  51.7685163  87.2578633  69.0966217  52.7188546  86.5928138
  62.1374968  41.3486522  82.9351555  62.4771040  41.8772444  82.2130164
  62.5847088  41.6866929  83.7110122  71.8746845  53.5197014  88.1635936
  72.7993393  53.3139875  88.0260387  71.7062148  53.2713415  89.0725277
  64.8318408  39.7323573  92.3854623  64.4915229  38.9331386  92.7875303
  64.1257415  40.0325284  91.8131456  65.4834880  36.8172886  90.8381946
  66.3060950  36.3433364  90.7160837  65.7272944  37.5963369  91.3380633
  64.1243115  39.8461144  81.1344848  64.8451477  40.2242397  80.6308565
  63.5008419  40.5650021  81.2379826  68.2674238  40.5506293  82.0703180
  68.4837852  41.4330931  81.7692008  67.7868305  40.1592506  81.3408822
  63.0073459  43.5092006  88.6473925  62.8618040  43.8232309  89.5398206
  62.5298663  44.1276907  88.0944824  64.8669842  40.4994554  88.6954814
  64.8531411  39.6035648  88.3587112  65.5842270  40.5065218  89.3293100
  66.7195973  40.9331894  90.7407942  66.4613750  41.8548965  90.7392272
  66.1881013  40.5362329  91.4308406  71.6642161  54.0382682  83.5198027
  71.8379039  53.4729104  82.7671880  72.1571053  54.8383576  83.3377517
  57.4819121  46.0497351  91.5861586  56.9372589  46.8257159  91.7181860
  58.3598471  46.3968155  91.4280707  64.2706738  39.3808935  83.9642385
  64.3922649  38.4525581  84.1633272  63.9808780  39.3947621  83.0520700
  67.1397928  37.0663845  87.1009104  67.1619625  37.1303178  86.1461084
  67.5565987  36.2268354  87.2949611  77.5181553  46.8019105  85.1388327
  77.9612699  46.0526430  84.7407450  76.6408063  46.7929241  84.7562059
  72.6517334  53.3549446  80.6194926  73.3468238  53.9756139  80.8382240
  72.9940484  52.5044797  80.8947303  58.2685143  45.1767247  94.4791743
  57.5266879  45.3249882  95.0656373  57.9477887  45.4375513  93.6158492
  74.5508757  50.8049152  82.1482256  75.0760081  51.1436424  81.4231576
  74.4631109  49.8696167  81.9645391  66.2128806  54.7183225  94.2772133
  66.5215932  54.4732372  95.1494833  67.0104288  54.9229864  93.7891003
  66.2349418  56.8721135  86.5077509  65.7954408  56.3797514  87.2010366
  66.9857535  56.3294102  86.2669585  58.7141757  53.0632676  86.5102138
  59.5399777  52.7636448  86.1300781  58.3635809  52.2940298  86.9591926
  63.6823290  52.4159144  88.5799811  63.0603299  51.7529849  88.2802039
  64.3528157  52.4420276  87.8973459  56.9150362  50.9819002  87.4691071
  56.0782270  50.5541176  87.2875072  56.8874007  51.1751445  88.4061862
  63.7547817  40.8940932  98.1732317  63.8035973  41.7703055  97.7910087
  64.2970332  40.3518325  97.6003960  74.2402663  51.4382055  97.4533454
  73.4498207  51.4206194  96.9137954  74.0036018  51.9770349  98.2082491
  74.3600538  48.2874522  94.7666183  74.4098543  48.1224529  95.7081706
  74.2514461  47.4201781  94.3764064  71.6504300  44.2705450  96.0825490
  72.5514163  44.1311914  95.7909487  71.7252275  44.4359904  97.0223667
  65.9847106  41.6472304  94.9278676  65.1150415  41.9405870  94.6561264
  66.2206586  42.2312749  95.6485939  75.8618735  50.7071463  95.0108204
  75.5703543  51.0701444  95.8471665  75.2490866  49.9938471  94.8321536
  77.0614417  48.2724343  87.5310775  77.8961309  48.7114147  87.6948335
  77.1973546  47.7962996  86.7119020  74.1105923  45.8304078  93.4788262
  74.5860045  46.0231724  92.6707114  73.1871489  45.8863264  93.2331646
  60.9989430  46.9928245  83.0619341  60.7535472  46.0890575  83.2599551
  61.1685344  46.9945395  82.1198819  68.6886140  37.8651921  92.4444096
  69.2068083  38.6012948  92.1190585  68.3341272  38.1715915  93.2790855
  60.2685077  42.7256602  80.5605502  59.5754322  42.8000957  79.9045538
  60.0236829  41.9616946  81.0827019  68.9398734  34.2852204  87.9644993
  69.2200488  33.6175393  88.5905419  69.7249341  34.4781299  87.4519657
  72.8107592  42.7069838  91.7116568  73.7625015  42.8067935  91.7328792
  72.6411043  41.9148106  92.2214652  70.8321972  39.7925421  91.8975969
  70.2371904  40.0730434  91.2022457  70.5471668  40.2819322  92.6692710
  69.9629462  53.7448348  80.6578601  70.8960135  53.6793909  80.8611477
  69.8752675  54.5804615  80.1993134  72.5917479  53.0614218  77.6182549
  72.5131110  52.7274082  78.5118307  73.4127146  53.5535986  77.6174021
  75.2895670  45.9275957  90.8258868  75.2571990  44.9891958  91.0118551
  75.8996294  46.0059994  90.0924692  67.1279001  44.7972010  76.8686072
  68.0738105  44.6678219  76.9374490  66.7493246  44.0586672  77.3455500
  75.4390158  42.7187001  90.8717151  74.9229207  41.9345458  90.6847080
  76.3230107  42.3905718  91.0363670  73.1000885  36.4628016  86.8312963
  72.9025706  36.1543105  87.7156295  73.7100591  37.1889655  86.9610893
  81.1072220  46.9891964  89.9664904  81.8375608  46.7277252  90.5272608
  80.4979165  46.2520686  90.0066972  79.1887517  45.1299827  90.5639356
  78.4620680  44.9955792  89.9555847  78.7734804  45.4376656  91.3696074
  67.0117693  48.8489757  98.3286729  67.9320703  49.0268356  98.5226775
  66.9767276  47.9045802  98.1766428  65.3121918  42.7221987  76.8040957
  64.4053373  42.4255100  76.8803670  65.5897899  42.4251805  75.9375243
  56.2299858  44.0428350  87.2540003  55.9102643  43.1893658  86.9614377
  55.6833286  44.2576928  88.0097971  60.0079766  46.7590791  90.9709510
  60.2265776  47.6907899  90.9897544  60.4205540  46.3998766  91.7564314
  66.9283984  37.2658877  82.9585198  66.1184712  36.9205962  83.3340444
  67.6168401  36.9566420  83.5472810  68.8574532  36.3436923  84.5809495
  69.4105571  36.7632377  85.2399518  69.0944618  35.4172671  84.6232451
  64.8807631  42.3323997 100.3612259  64.7804358  43.2818354 100.2924350
  64.6629173  42.0042236  99.4888329  64.0820703  39.5808922  76.9452936
  64.9439867  39.9063820  77.2048753  64.2671047  38.7940418  76.4326002
  56.0988118  47.6631262  89.2233125  55.4051590  47.2485215  88.7103079
  56.8461109  47.7051798  88.6266544  72.2353339  38.4537449  84.0888159
  71.6552008  39.1122253  83.7066211  71.9689272  37.6314793  83.6775577
  70.6856905  37.8542506  86.2909479  71.1856684  37.9659041  85.4823798
  71.3292513  37.5503559  86.9310288  64.7438901  45.7621136  99.1777320
  64.2605983  46.5621496  99.3841209  64.8299840  45.7729081  98.2244764
  58.0124861  47.5949516  87.0999140  57.9895549  47.6937203  86.1481023
  58.3225497  48.4414666  87.4216306  60.6712239  49.6525671  91.2145754
  61.6255492  49.6209613  91.1475686  60.4724762  49.1916294  92.0295980
  61.2611621  48.2226787  93.7816552  62.0804510  48.7170865  93.8051389
  61.5348429  47.3058755  93.7534119  71.0178217  40.6137539  83.1444507
  70.1304072  40.8987190  82.9264702  71.4332206  40.4531302  82.2971784
  74.3692753  40.6384060  86.8598847  75.1453143  41.1280512  87.1323463
  73.6440887  41.0642114  87.3170716  76.8065312  41.3511679  87.9172787
  77.4009803  41.1107415  87.2066095  76.8791896  40.6318810  88.5446323
  59.0262468  55.1945290  88.2315952  58.8916935  54.4345691  87.6653950
  58.6094530  55.9186190  87.7644741  70.9919241  46.1292075  83.3594797
  70.9354442  46.5860626  82.5202430  71.5447583  45.3682759  83.1817640
  74.8024047  41.9181807  84.1844917  74.5460981  41.5178442  85.0153125
  74.1776915  42.6325601  84.0595056  79.1136385  44.6577880  86.6916208
  78.5535943  44.7271069  87.4647770  78.5079888  44.4818865  85.9715705
  62.1831593  56.0914607  88.4434395  62.0663978  57.0360040  88.3413085
  61.3624040  55.7888169  88.8320194  72.0708128  50.8164743  79.2890987
  72.9053732  50.3845941  79.1068462  71.9092471  50.6446756  80.2167882
  71.7254020  47.3196856  80.6547327  71.6702824  47.1541128  79.7135771
  71.1000075  48.0272889  80.8109516  56.5146535  42.5564920  94.4808749
  57.1605399  42.0463874  94.9695974  56.3063686  43.2933602  95.0552174
  69.0399927  49.6245768  99.9800889  69.9091087  49.7986420  99.6187524
  68.5606679  50.4440185  99.8576619  65.0350146  36.8204965  80.2332645
  65.0228815  37.7646805  80.3900916  65.9273567  36.6375110  79.9392106
  63.2086108  56.7442869  91.6590323  64.1113354  56.7766479  91.9756818
  62.9823478  55.8143320  91.6736659  64.9639710  55.4973855  88.3200402
  64.0135341  55.4975717  88.2064774  65.2672196  54.7506590  87.8036436
  68.8502265  33.4147742  84.4878582  68.0834661  32.8606228  84.6335264
  69.2612970  33.4869610  85.3492733  60.8544026  39.7032538  98.5783763
  61.7175488  39.3469342  98.7887088  60.2809437  39.3646432  99.2659167
  80.6992403  61.3334394  89.3846164  81.3370813  61.2141141  88.6809504
  80.5813246  62.2815238  89.4434116  77.5082109  61.2861822  89.3207689
  77.1700621  61.1702887  88.4328224  78.3771877  60.8852987  89.3008695
  77.9901892  62.4396674  95.2793894  77.9790533  62.0449472  94.4074398
  78.1522532  61.7062746  95.8727666  78.9468484  66.8068266  80.6219045
  78.2956463  67.3922347  80.2353058  79.7412847  67.3374461  80.6814082
  74.7109153  65.2233786  94.2273078  74.4199019  66.1279416  94.1119745
  75.3466138  65.2650313  94.9417148  75.6365360  62.6010634  90.8174438
  76.2328933  62.3766656  90.1031401  75.6940332  61.8595380  91.4199886
  80.2533671  59.0585848  86.4599372  81.0396761  58.6405271  86.1089789
  80.5172376  59.9631940  86.6281021  80.4243749  64.4958698  81.1588029
  79.7889582  64.5693325  81.8708934  80.0941155  65.0852297  80.4807108
  85.6542099  58.9961081  87.3632351  86.3867271  58.4260298  87.5970180
  84.8981454  58.6082681  87.8038856  77.2718218  61.4188322  84.5595693
  76.9076426  60.8918943  85.2708615  78.1285334  61.0286791  84.3862179
  83.1767519  52.7082655  91.8226959  82.8450844  53.5778066  91.5988174
  82.5813132  52.3918939  92.5020990  76.9123705  56.4478222  79.5557042
  77.0798108  57.3158459  79.9227513  76.7220874  56.6105504  78.6318331
  79.6699039  64.9095201  91.2222872  79.3699762  65.8120240  91.1138679
  79.3250098  64.6427384  92.0744025  73.1211520  61.3608998  87.2559576
  72.1962016  61.2285212  87.4637268  73.3695933  62.1403217  87.7529519
  83.0696182  57.4277741  88.9020309  82.1613060  57.3593150  88.6079070
  83.0183778  57.9049686  89.7302135  76.8912926  58.9035880  80.5403708
  76.7712551  59.3492930  81.3789189  76.1965515  59.2521197  79.9817247
  77.1437048  58.8467387  96.8455207  76.3670382  59.4061307  96.8358071
  77.7827611  59.3324170  97.3670077  84.9357829  55.6294180  90.6798183
  84.2932209  55.9226713  90.0337978  84.4312757  55.5147100  91.4851380
  82.5897992  59.3757353  81.3684042  83.5015848  59.6084740  81.1931740
  82.0807639  59.9594397  80.8059121  75.3983420  61.6552840  96.4073174
  76.1398105  62.1937884  96.1307997  74.6920406  62.2819129  96.5644725
  80.8738760  63.7981981  95.0045335  81.2822116  63.3564391  94.2599967
  80.1516022  63.2234608  95.2579528  77.2269830  58.7354587  92.3778892
  78.0731025  59.1594001  92.5213541  77.1668468  58.0788212  93.0717455
  81.1967575  64.3583171  88.7597624  80.5676437  64.5228885  88.0573692
  80.8093237  64.7724781  89.5308588  85.0756807  65.2937609  86.1141988
  84.3907845  65.6736510  85.5639021  85.1600656  65.9032936  86.8473935
  80.3769275  56.3958956  94.0360066  80.1330207  57.1501016  93.4994341
  80.6529206  56.7744303  94.8707313  82.3307738  62.9397568  92.7137331
  82.5424633  63.5829328  92.0371712  82.2837486  62.1059885  92.2459261
  79.9333967  55.5515389  89.6173903  79.0718446  55.8496642  89.9090641
  79.9596402  55.7685788  88.6854936  76.7495537  64.0957579  86.0247709
  77.2133882  64.3745282  85.2352332  76.4852335  63.1941024  85.8420800
  73.6419618  63.6429061  88.9627472  74.2120975  64.0716329  88.3244957
  74.2327729  63.3611646  89.6611658  75.6864423  60.2180732  82.8337274
  76.3888466  60.6701775  83.3011201  75.3545051  59.5764551  83.4617167
  74.1344784  58.8092488  97.2088484  73.5043445  59.4908769  97.4423880
  74.0280872  58.6975570  96.2641622  69.4289757  58.4764284  88.1354408
  68.6388811  58.7321813  87.6594518  69.9201004  59.2912622  88.2406448
  83.4453566  65.8169524  90.8859689  84.2671010  65.4149711  90.6042370
  83.4415969  65.7137758  91.8375804  71.3804502  58.8408864  85.0937884
  70.5835665  58.9527558  85.6121380  71.1530094  59.1795516  84.2278775
  77.2110170  65.3653567  93.0420399  77.2754602  65.8273974  93.8778571
  76.5021093  64.7350932  93.1702709  67.7127460  58.7294775  90.5669399
  67.9635498  59.6141785  90.8326974  68.2487008  58.5499376  89.7944490
  91.5359559  62.1608272  87.2344660  90.7823268  61.5915670  87.0788664
  91.6707100  62.1270937  88.1815295  73.4125527  53.1113254  99.5713735
  73.0192472  52.5579453 100.2461379  74.2291667  53.4223833  99.9620252
  76.3293488  54.5271133  97.1633991  77.0703201  55.1278286  97.0838454
  76.5611411  53.7848771  96.6052034  71.4734826  59.7127501  95.4412221
  71.3588341  58.8112758  95.7419320  70.6179344  59.9591197  95.0897037
  78.5526664  67.6545241  97.0399721  78.1090518  66.8681619  96.7220626
  79.2143877  67.8424391  96.3743612  80.6507902  67.9348041  95.0681123
  80.6326377  68.7556922  94.5761392  81.5727822  67.8102116  95.2931264
  77.1080956  65.4492170  95.9104631  77.6409293  64.6880458  95.6803939
  76.5795037  65.1565822  96.6528786  80.2750651  50.5552236  91.4398273
  79.9314920  51.4453878  91.3637383  80.6429613  50.3653894  90.5767858
  80.2400934  60.5460847  79.9470708  79.7247557  61.3165452  80.1859095
  79.9678242  59.8725983  80.5703769  77.8248045  55.3910548  85.0055946
  76.9689641  55.0017398  84.8261585  78.2374996  55.4702509  84.1455732
  79.3547191  52.9256891  89.4047506  78.8511987  52.8887027  88.5915311
  79.6477798  53.8349634  89.4644163  75.5990077  53.0095621  88.4113688
  76.4643074  52.8138430  88.0519577  75.6667586  52.7805973  89.3383045
  85.2135208  63.2993202  81.8823881  84.4364650  62.9604361  81.4379044
  85.8926689  63.3045825  81.2078847  80.0287237  58.4187939  81.7730489
  79.7237372  58.7334089  82.6240632  80.9817679  58.4969359  81.8157822
  78.4733669  64.5778163  83.4223443  77.9455030  63.8430922  83.1096681
  77.9721171  65.3552839  83.1763411  83.4526515  62.7727183  88.5390489
  82.7950189  63.4626445  88.6270618  84.2566914  63.1623615  88.8824476
  73.2052396  55.2397829  85.7830055  73.7796148  55.0173011  85.0503248
  73.7923379  55.3086524  86.5358656  82.2631973  61.1271556  86.5894431
  82.7763855  61.7601548  87.0916141  82.9133197  60.5272751  86.2237791
  73.5321983  57.2702290  79.8025940  72.6959296  57.6076977  80.1235215
  73.3926753  57.1351270  78.8653077  75.5075064  52.1139078  84.5105124
  74.8539476  51.7988095  83.8861739  75.4655538  51.4914818  85.2364947
  79.5254348  71.1055880  79.3455102  78.8516046  71.4087577  79.9540060
  79.9120170  71.9084961  78.9960559  78.7412804  58.6021011  88.8352772
  77.8235366  58.8235958  88.6774460  79.1572948  58.6767322  87.9764479
  79.5247852  60.0012427  83.9655452  80.2719671  60.5133824  83.6562574
  79.7939442  59.6796480  84.8259846  83.0293770  66.1077557  84.7173574
  82.5756097  65.2668467  84.7738764  82.3987736  66.7438956  85.0548354
  81.9726689  57.0369543  85.9474241  81.2349446  56.5246930  86.2784484
  82.2253463  56.5969925  85.1357518  81.4726709  67.9454054  85.6523392
  81.7649683  68.5059111  84.9335758  81.9825329  68.2382615  86.4076551
  82.0738316  49.8145795  86.5416011  82.3797193  48.9543159  86.2541926
  82.7990921  50.4063416  86.3415004  68.3662673  60.2176482  84.9297608
  68.1687072  59.6245843  84.2048675  67.8109337  59.9128692  85.6473547
  76.3459396  60.1099588  87.0492202  76.4008006  59.1573425  86.9734678
  75.5350598  60.2659028  87.5333500  74.2851756  58.7276648  84.8082580
  73.4719622  59.0270819  85.2147773  74.7810750  58.3332337  85.5257063
  79.8825968  59.1918473  93.6397474  80.2375356  59.4189946  94.4991940
  80.5298099  59.5236849  93.0174730  85.6123705  62.3136909  84.3446803
  85.4741603  62.5038505  83.4167993  85.2559924  63.0756291  84.8014855
  73.7765831  56.2995004  90.4243815  74.4165210  56.1583763  89.7266779
  72.9443361  56.0129517  90.0482417  85.6393084  64.3813436  89.3558075
  86.0729591  64.2888725  90.2041129  86.3524665  64.3570936  88.7178091
  70.8608898  59.7440516  82.6138561  69.9306486  59.6824971  82.8308523
  70.9566370  59.2216469  81.8175202  70.7794447  56.2695329  85.2016802
  71.0401265  57.1840662  85.0925963  71.6011620  55.8019771  85.3513415
  72.2519373  57.6833086  92.3715627  72.9242426  57.4750448  91.7228276
  71.4249159  57.4855172  91.9320859  86.5008634  64.4237136  91.8890960
  86.6944524  65.3282947  92.1350235  86.4009252  63.9644555  92.7229545
  78.1544945  54.3095027  94.3881288  77.5072860  55.0084976  94.2945764
  78.9245960  54.7431171  94.7557536  81.5623743  64.5743879  97.4631841
  81.4109249  64.3454431  96.5461925  81.5528422  65.5314480  97.4763186
  78.3309079  62.1475792  92.4478107  79.2601139  62.2986951  92.2747075
  77.9100109  62.2359813  91.5926754  77.7245563  71.2735553  81.5602182
  77.8997318  70.8023596  82.3747804  77.0378351  71.9001319  81.7883442
  78.6802626  65.5508059  87.6065483  78.3452459  65.5108829  88.5023133
  78.1806572  64.8852775  87.1335893  72.6546870  60.9575689  93.1318064
  72.5166668  60.2255928  93.7329603  73.5651793  60.8684589  92.8502252
  81.6161818  62.8964093  77.8802542  80.9990988  62.1710921  77.7835595
  81.1478306  63.6573453  77.5369617  75.2829171  60.6695648  92.6201744
  75.9928789  60.0288840  92.5788362  75.2398479  60.9208543  93.5427924
  83.2715949  67.6063002  95.5408323  83.2128495  66.9222222  94.8738906
  83.6735468  68.3481992  95.0888949  73.9958105  57.6560866  94.4397383
  73.4595462  57.2051605  95.0918979  73.4074813  57.7906775  93.6967847
  73.4060363  57.1149517  77.0023847  72.5289830  56.9938318  76.6386093
  73.8818117  56.3235596  76.7502735  83.2733356  65.5702585  93.7722302
  82.3860135  65.2328507  93.8948701  83.8431908  64.8385617  94.0091068
  69.7297226  56.7916874  91.5250378  69.6455414  56.1842543  90.7900787
  68.9079932  57.2825892  91.5259874  79.9020940  55.2770437  86.8920573
  80.3989639  54.5240400  86.5721643  79.1307921  55.3134754  86.3263782
  87.7550697  60.9810803  88.5338864  87.7440573  61.8635518  88.1632797
  86.8868076  60.6282354  88.3393401  79.2633193  70.1290872  92.8941704
  79.9761166  70.7638337  92.8217606  78.7723222  70.2254738  92.0781706
  80.9850720  64.0342125  84.4658996  80.0506999  64.1543587  84.2963700
  81.1627389  63.1314591  84.2019006  76.4855908  57.4187820  86.6192257
  76.1153696  56.8658861  87.3073163  76.9815001  56.8145954  86.0667257
  84.3723272  59.8759444  85.0009030  84.8383724  60.7087435  84.9269333
  84.8230772  59.4104425  85.7054289  82.4399503  66.2203265  81.9995182
  82.7159347  66.1059860  82.9089056  81.5704002  65.8220750  81.9607355
  82.3439934  52.2440031  89.0399931  81.4303014  52.4744258  89.2082138
  82.7733036  52.3278475  89.8913964  82.1146393  60.4329923  91.5399825
  81.4617843  60.6805830  90.8852278  82.4926773  59.6194061  91.2062303
  79.4095732  69.3957801  82.9043044  79.9383499  68.8850256  82.2913206
  79.6723952  69.0800331  83.7688577  78.1633966  61.1749734  98.0265863
  77.4874603  61.0743863  98.6968238  78.9861600  61.0188948  98.4901860
  64.5030480  59.9827271  89.3682821  64.5414579  59.4490861  90.1619939
  63.9970773  59.4562476  88.7493798  76.9056749  72.4816661  92.2623479
  77.4575057  72.6448283  93.0272564  77.2462942  73.0721099  91.5903503
  71.8821242  54.8291811  92.8645363  71.9462569  55.6906642  92.4522761
  71.8188362  54.2165813  92.1317722  71.3573515  56.9014944  96.5118398
  71.9845553  56.5192021  97.1255922  70.5001433  56.6829146  96.8774090
  81.7567623  67.3077919  98.1172133  82.3007527  67.9207877  97.6227088
  81.1754468  67.8657497  98.6339146  68.1339057  58.7091373  82.4436752
  68.4292498  57.8002051  82.3903806  67.2327093  58.6879112  82.1217755
  71.6633304  56.7847369  88.4264301  70.9419890  57.3983337  88.2871774
  72.4526560  57.3205134  88.3480947  82.1060044  68.2307657  90.8766711
  81.1590380  68.1113008  90.8045038  82.4542818  67.3430155  90.9592972
  74.4659618  54.1201796  94.7004953  74.9894020  54.3664092  95.4631262
  74.2471951  54.9521831  94.2808090  69.8626899  56.3905470  82.5676078
  69.5339605  55.5102849  82.3851183  70.2166270  56.3353139  83.4552467
  72.9768722  56.6778440  82.9351555  73.3164795  57.2064361  82.2130164
  73.4240843  57.0158846  83.7110122  82.7140600  68.8488932  88.1635936
  83.6387147  68.6431793  88.0260387  82.5455903  68.6005333  89.0725277
  75.6712163  55.0615491  92.3854623  75.3308983  54.2623304  92.7875303
  74.9651169  55.3617202  91.8131456  76.3228635  52.1464803  90.8381946
  77.1454704  51.6725282  90.7160837  76.5666698  52.9255287  91.3380633
  74.9636869  55.1753062  81.1344848  75.6845232  55.5534315  80.6308565
  74.3402173  55.8941939  81.2379826  79.1067992  55.8798211  82.0703180
  79.3231606  56.7622849  81.7692008  78.6262059  55.4884424  81.3408822
  73.8467213  58.8383924  88.6473925  73.7011794  59.1524227  89.5398206
  73.3692417  59.4568824  88.0944824  75.7063596  55.8286472  88.6954814
  75.6925165  54.9327565  88.3587112  76.4236024  55.8357136  89.3293100
  77.5589727  56.2623812  90.7407942  77.3007505  57.1840883  90.7392272
  77.0274767  55.8654247  91.4308406  82.5035916  69.3674599  83.5198027
  82.6772793  68.8021022  82.7671880  82.9964807  70.1675494  83.3377517
  75.1100492  54.7100852  83.9642385  75.2316403  53.7817498  84.1633272
  74.8202535  54.7239538  83.0520700  77.9791683  52.3955763  87.1009104
  78.0013379  52.4595096  86.1461084  78.3959742  51.5560271  87.2949611
  88.3575307  62.1311022  85.1388327  88.8006453  61.3818347  84.7407450
  87.4801817  62.1221159  84.7562059  83.4911088  68.6841364  80.6194926
  84.1861993  69.3048056  80.8382240  83.8334238  67.8336715  80.8947303
  69.1078897  60.5059165  94.4791743  68.3660634  60.6541800  95.0656373
  68.7871642  60.7667430  93.6158492  85.3902511  66.1341069  82.1482256
  85.9153836  66.4728342  81.4231576  85.3024864  65.1988085  81.9645391
  77.0522560  70.0475143  94.2772133  77.3609687  69.8024290  95.1494833
  77.8498042  70.2521781  93.7891003  74.5941572  56.2232850  98.1732317
  74.6429727  57.0994972  97.7910087  75.1364086  55.6810243  97.6003960
  85.0796417  66.7673973  97.4533454  84.2891961  66.7498112  96.9137954
  84.8429772  67.3062267  98.2082491  85.1994293  63.6166439  94.7666183
  85.2492297  63.4516447  95.7081706  85.0908216  62.7493698  94.3764064
  82.4898055  59.5997367  96.0825490  83.3907918  59.4603832  95.7909487
  82.5646029  59.7651822  97.0223667  76.8240860  56.9764222  94.9278676
  75.9544170  57.2697788  94.6561264  77.0600341  57.5604667  95.6485939
  86.7012489  66.0363381  95.0108204  86.4097298  66.3993361  95.8471665
  86.0884621  65.3230389  94.8321536  87.9008172  63.6016261  87.5310775
  88.7355063  64.0406065  87.6948335  88.0367300  63.1254914  86.7119020
  84.9499678  61.1595995  93.4788262  85.4253799  61.3523642  92.6707114
  84.0265243  61.2155181  93.2331646  71.8383184  62.3220163  83.0619341
  71.5929226  61.4182493  83.2599551  72.0079099  62.3237313  82.1198819
  79.5279894  53.1943839  92.4444096  80.0461838  53.9304866  92.1190585
  79.1735027  53.5007832  93.2790855  71.1078832  58.0548520  80.5605502
  70.4148077  58.1292875  79.9045538  70.8630584  57.2908864  81.0827019
  79.7792488  49.6144121  87.9644993  80.0594242  48.9467311  88.5905419
  80.5643095  49.8073217  87.4519657  77.5825957  68.7903115  79.5270019
  77.0099924  69.4093303  79.0740491  78.1558750  69.3402477  80.0609941
  83.6501347  58.0361755  91.7116568  84.6018770  58.1359853  91.7328792
  83.4804797  57.2440024  92.2214652  81.6715726  55.1217339  91.8975969
  81.0765658  55.4022351  91.2022457  81.3865423  55.6111240  92.6692710
  80.8023217  69.0740265  80.6578601  81.7353890  69.0085827  80.8611477
  80.7146429  69.9096532  80.1993134  83.4311233  68.3906136  77.6182549
  83.3524865  68.0565999  78.5118307  84.2520900  68.8827904  77.6174021
  86.1289424  61.2567875  90.8258868  86.0965745  60.3183876  91.0118551
  86.7390048  61.3351912  90.0924692  77.9672755  60.1263928  76.8686072
  78.9131860  59.9970136  76.9374490  77.5887000  59.3878590  77.3455500
  86.2783913  58.0478919  90.8717151  85.7622962  57.2637375  90.6847080
  87.1623861  57.7197635  91.0363670  83.9394640  51.7919934  86.8312963
  83.7419461  51.4835022  87.7156295  84.5494345  52.5181573  86.9610893
  91.9465974  62.3183882  89.9664904  92.6769363  62.0569170  90.5272608
  91.3372920  61.5812604  90.0066972  90.0281271  60.4591745  90.5639356
  89.3014435  60.3247710  89.9555847  89.6128558  60.7668573  91.3696074
  77.8511448  64.1781674  98.3286729  78.7714457  64.3560273  98.5226775
  77.8161031  63.2337720  98.1766428  76.1515672  58.0513905  76.8040957
  75.2447128  57.7547017  76.8803670  76.4291653  57.7543723  75.9375243
  67.0693613  59.3720268  87.2540003  66.7496397  58.5185576  86.9614377
  66.5227041  59.5868846  88.0097971  77.7677738  52.5950794  82.9585198
  76.9578466  52.2497879  83.3340444  78.4562155  52.2858338  83.5472810
  79.6968286  51.6728841  84.5809495  80.2499325  52.0924294  85.2399518
  79.9338373  50.7464589  84.6232451  75.7201386  57.6615915 100.3612259
  75.6198113  58.6110272 100.2924350  75.5022928  57.3334154  99.4888329
  74.9214457  54.9100840  76.9452936  75.7833621  55.2355738  77.2048753
  75.1064801  54.1232336  76.4326002  83.0747094  53.7829366  84.0888159
  82.4945763  54.4414170  83.7066211  82.8083026  52.9606711  83.6775577
  81.5250660  53.1834424  86.2909479  82.0250438  53.2950958  85.4823798
  82.1686268  52.8795477  86.9310288  75.5832656  61.0913054  99.1777320
  75.0999737  61.8913414  99.3841209  75.6693595  61.1020998  98.2244764
  72.1005375  63.5518704  93.7816552  72.9198264  64.0462783  93.8051389
  72.3742183  62.6350672  93.7534119  81.8571972  55.9429457  83.1444507
  80.9697827  56.2279107  82.9264702  82.2725961  55.7823220  82.2971784
  85.2086508  55.9675978  86.8598847  85.9846898  56.4572430  87.1323463
  84.4834642  56.3934032  87.3170716  87.6459066  56.6803597  87.9172787
  88.2403557  56.4399333  87.2066095  87.7185650  55.9610727  88.5446323
  81.0015185  65.7074131  77.2392527  81.7051035  65.9124134  77.8550183
  80.2777834  66.2750893  77.5041611  81.8312995  61.4583993  83.3594797
  81.7748197  61.9152544  82.5202430  82.3841338  60.6974677  83.1817640
  85.6417801  57.2473724  84.1844917  85.3854735  56.8470360  85.0153125
  85.0170669  57.9617518  84.0595056  89.9530139  59.9869798  86.6916208
  89.3929697  60.0562987  87.4647770  89.3473642  59.8110782  85.9715705
  82.9101882  66.1456660  79.2890987  83.7447486  65.7137859  79.1068462
  82.7486225  65.9738674  80.2167882  82.5647775  62.6488774  80.6547327
  82.5096578  62.4833045  79.7135771  81.9393830  63.3564807  80.8109516
  67.3540290  57.8856838  94.4808749  67.9999153  57.3755792  94.9695974
  67.1457441  58.6225520  95.0552174  79.8793682  64.9537686  99.9800889
  80.7484841  65.1278338  99.6187524  79.4000433  65.7732102  99.8576619
  75.8743900  52.1496883  80.2332645  75.8622570  53.0938723  80.3900916
  76.7667322  51.9667028  79.9392106  79.6896020  48.7439659  84.4878582
  78.9228415  48.1898146  84.6335264  80.1006724  48.8161528  85.3492733
  71.6937781  55.0324455  98.5783763  72.5569242  54.6761260  98.7887088
  71.1203191  54.6938350  99.2659167  91.5386157  76.6626312  89.3846164
  92.1764567  76.5433059  88.6809504  91.4207000  77.6107156  89.4434116
  88.3475864  76.6153740  89.3207689  88.0094375  76.4994804  88.4328224
  89.2165632  76.2144905  89.3008695  84.2062679  78.4689216  85.3104580
  83.6427545  78.3779153  84.5420867  84.0915075  77.6489121  85.7907072
  88.8295647  77.7688591  95.2793894  88.8184288  77.3741390  94.4074398
  88.9916286  77.0354664  95.8727666  81.7527111  79.9640408  88.1488800
  82.5448403  79.6231232  87.7335099  81.9923762  80.0735383  89.0690954
  89.7862238  82.1360184  80.6219045  89.1350218  82.7214264  80.2353058
  90.5806601  82.6666379  80.6814082  83.7117865  79.2249321  81.0206179
  84.4848741  78.6778308  80.8819055  84.0643264  80.0893570  81.2320640
  85.5502908  80.5525703  94.2273078  85.2592774  81.4571334  94.1119745
  86.1859892  80.5942231  94.9417148  86.4759115  77.9302552  90.8174438
  87.0722687  77.7058574  90.1031401  86.5334086  77.1887297  91.4199886
  86.0484143  75.3841987  78.6524629  86.3009664  74.8623508  77.8908092
  85.1108702  75.2208132  78.7551313  91.0927426  74.3877765  86.4599372
  91.8790515  73.9697189  86.1089789  91.3566130  75.2923858  86.6281021
  91.2637503  79.8250616  81.1588029  90.6283336  79.8985242  81.8708934
  90.9334910  80.4144215  80.4807108  96.4935853  74.3252999  87.3632351
  97.2261025  73.7552215  87.5970180  95.7375209  73.9374599  87.8038856
  85.7680432  77.2870093  80.8549004  85.6516690  76.6114996  81.5230088
  85.8782692  76.8002467  80.0381157  88.1111973  76.7480240  84.5595693
  87.7470180  76.2210861  85.2708615  88.9679089  76.3578709  84.3862179
  94.0161273  68.0374573  91.8226959  93.6844598  68.9069984  91.5988174
  93.4206887  67.7210857  92.5020990  87.7517460  71.7770140  79.5557042
  87.9191862  72.6450376  79.9227513  87.5614629  71.9397421  78.6318331
  90.5092793  80.2387119  91.2222872  90.2093516  81.1412158  91.1138679
  90.1643853  79.9719302  92.0744025  83.9605274  76.6900916  87.2559576
  83.0355771  76.5577130  87.4637268  84.2089688  77.4695135  87.7529519
  93.9089937  72.7569659  88.9020309  93.0006814  72.6885067  88.6079070
  93.8577533  73.2341604  89.7302135  87.7306681  74.2327797  80.5403708
  87.6106306  74.6784848  81.3789189  87.0359269  74.5813115  79.9817247
  81.3214086  76.3334189  88.0903365  81.4506467  76.5868668  89.0042777
  80.6411537  76.9261897  87.7708021  85.4913573  87.0031439  84.1893840
  85.4137602  87.9539264  84.2682320  84.8875216  86.6577312  84.8468766
  87.9830803  74.1759304  96.8455207  87.2064137  74.7353225  96.8358071
  88.6221366  74.6616087  97.3670077  95.7751583  70.9586097  90.6798183
  95.1325963  71.2518630  90.0337978  95.2706512  70.8439018  91.4851380
  93.4291747  74.7049270  81.3684042  94.3409603  74.9376657  81.1931740
  92.9201394  75.2886315  80.8059121  86.2377175  76.9844758  96.4073174
  86.9791859  77.5229802  96.1307997  85.5314160  77.6111047  96.5644725
  91.7132515  79.1273898  95.0045335  92.1215871  78.6856309  94.2599967
  90.9909776  78.5526526  95.2579528  88.0663585  74.0646505  92.3778892
  88.9124780  74.4885919  92.5213541  88.0062222  73.4080129  93.0717455
  92.0361329  79.6875089  88.7597624  91.4070192  79.8520803  88.0573692
  91.6486991  80.1016698  89.5308588  95.9150561  80.6229527  86.1141988
  95.2301599  81.0028428  85.5639021  95.9994410  81.2324853  86.8473935
  91.2163030  71.7250873  94.0360066  90.9723962  72.4792934  93.4994341
  91.4922960  72.1036221  94.8707313  93.1701493  78.2689486  92.7137331
  93.3818388  78.9121246  92.0371712  93.1231241  77.4351802  92.2459261
  90.7727722  70.8807306  89.6173903  89.9112201  71.1788560  89.9090641
  90.7990156  71.0977705  88.6854936  87.5889291  79.4249497  86.0247709
  88.0527637  79.7037200  85.2352332  87.3246089  78.5232942  85.8420800
  84.4813372  78.9720979  88.9627472  85.0514729  79.4008247  88.3244957
  85.0721484  78.6903563  89.6611658  86.5258177  75.5472649  82.8337274
  87.2282220  75.9993693  83.3011201  86.1938806  74.9056468  83.4617167
  84.9738539  74.1384406  97.2088484  84.3437199  74.8200687  97.4423880
  84.8674627  74.0267488  96.2641622  80.2683511  73.8056202  88.1354408
  79.4782565  74.0613731  87.6594518  80.7594758  74.6204540  88.2406448
  94.2847321  81.1461441  90.8859689  95.1064764  80.7441628  90.6042370
  94.2809723  81.0429675  91.8375804  82.2198256  74.1700781  85.0937884
  81.4229420  74.2819476  85.6121380  81.9923849  74.5087434  84.2278775
  88.0503924  80.6945485  93.0420399  88.1148357  81.1565892  93.8778571
  87.3414848  80.0642849  93.1702709  78.5521214  74.0586692  90.5669399
  78.8029252  74.9433702  90.8326974  79.0880762  73.8791294  89.7944490
 102.3753314  77.4900190  87.2344660 101.6217022  76.9207588  87.0788664
 102.5100855  77.4562854  88.1815295  87.7651942  82.3613592  82.9099379
  87.6297616  83.2065128  83.3384227  88.3061754  82.5632870  82.1465313
  84.2519281  68.4405172  99.5713735  83.8586227  67.8871370 100.2461379
  85.0685422  68.7515750  99.9620252  81.2181339  79.8789030  83.4827304
  81.7305860  80.6732280  83.6332869  81.8704052  79.1815320  83.4160906
  83.0276224  82.9954786  85.5650058  83.2042852  83.9172751  85.3771042
  83.8233057  82.6813206  85.9944437  87.1687242  69.8563051  97.1633991
  87.9096956  70.4570204  97.0838454  87.4005165  69.1140689  96.6052034
  82.3128580  75.0419418  95.4412221  82.1982095  74.1404675  95.7419320
  81.4573098  75.2883115  95.0897037  89.3920418  82.9837159  97.0399721
  88.9484272  82.1973537  96.7220626  90.0537632  83.1716309  96.3743612
  84.1507539  84.5132960  91.5660400  84.7014964  84.3850023  90.7937394
  83.3119015  84.8127849  91.2155293  91.4901656  83.2639958  95.0681123
  91.4720132  84.0848839  94.5761392  92.4121576  83.1394034  95.2931264
  87.9474710  80.7784088  95.9104631  88.4803047  80.0172376  95.6803939
  87.4188791  80.4857740  96.6528786  91.1144405  65.8844154  91.4398273
  90.7708675  66.7745796  91.3637383  91.4823368  65.6945812  90.5767858
  79.1830256  78.2077684  84.2586875  80.0205478  78.6174693  84.0420583
  79.3608524  77.2677127  84.2287069  91.0794688  75.8752765  79.9470708
  90.5641311  76.6457370  80.1859095  90.8071996  75.2017901  80.5703769
  88.6641799  70.7202466  85.0055946  87.8083395  70.3309316  84.8261585
  89.0768751  70.7994427  84.1455732  90.1940946  68.2548809  89.4047506
  89.6905741  68.2178944  88.5915311  90.4871553  69.1641552  89.4644163
  86.4383832  68.3387539  88.4113688  87.3036828  68.1430347  88.0519577
  86.5061340  68.1097891  89.3383045  96.0528962  78.6285120  81.8823881
  95.2758405  78.2896279  81.4379044  96.7320443  78.6337743  81.2078847
  90.8680991  73.7479857  81.7730489  90.5631127  74.0626006  82.6240632
  91.8211433  73.8261277  81.8157822  89.3127423  79.9070080  83.4223443
  88.7848785  79.1722840  83.1096681  88.8114926  80.6844757  83.1763411
  94.2920269  78.1019101  88.5390489  93.6343943  78.7918362  88.6270618
  95.0960668  78.4915533  88.8824476  84.0446151  70.5689747  85.7830055
  84.6189903  70.3464928  85.0503248  84.6317133  70.6378441  86.5358656
  93.1025728  76.4563474  86.5894431  93.6157610  77.0893465  87.0916141
  93.7526952  75.8564669  86.2237791  84.3715738  72.5994208  79.8025940
  83.5353050  72.9368894  80.1235215  84.2320507  72.4643188  78.8653077
  86.3468818  67.4430996  84.5105124  85.6933231  67.1280013  83.8861739
  86.3049292  66.8206736  85.2364947  87.4580023  77.7250291  76.4258416
  86.5507085  77.4939544  76.6249565  87.9551055  76.9287910  76.6132398
  90.3648102  86.4347798  79.3455102  89.6909801  86.7379495  79.9540060
  90.7513924  87.2376878  78.9960559  89.5806559  73.9312929  88.8352772
  88.6629120  74.1527876  88.6774460  89.9966702  74.0059240  87.9764479
  90.3641606  75.3304345  83.9655452  91.1113425  75.8425742  83.6562574
  90.6333196  75.0088398  84.8259846  88.6368257  77.8262886  80.9482406
  87.7279476  77.5421918  81.0454876  88.6663340  78.2461964  80.0885713
  93.8687524  81.4369475  84.7173574  93.4149851  80.5960385  84.7738764
  93.2381491  82.0730873  85.0548354  92.8120444  72.3661461  85.9474241
  92.0743200  71.8538847  86.2784484  93.0647217  71.9261843  85.1357518
  92.3120463  83.2745972  85.6523392  92.6043438  83.8351029  84.9335758
  92.8219084  83.5674533  86.4076551  92.9132071  65.1437713  86.5416011
  93.2190948  64.2835076  86.2541926  93.6384676  65.7355333  86.3415004
  79.2056427  75.5468400  84.9297608  79.0080827  74.9537760  84.2048675
  78.6503091  75.2420610  85.6473547  87.1853151  75.4391506  87.0492202
  87.2401760  74.4865343  86.9734678  86.3744353  75.5950945  87.5333500
  88.3344344  79.3671629  78.2870485  87.8963774  78.6507488  77.8276122
  89.0754785  79.5947744  77.7255576  85.1245511  74.0568566  84.8082580
  84.3113376  74.3562736  85.2147773  85.6204505  73.6624255  85.5257063
  87.2754088  84.0526323  86.7416845  87.2330267  84.2787169  85.8125377
  88.1916787  83.8189697  86.8902646  90.7219722  74.5210390  93.6397474
  91.0769110  74.7481863  94.4991940  91.3691854  74.8528767  93.0174730
  96.4517459  77.6428826  84.3446803  96.3135358  77.8330422  83.4167993
  96.0953678  78.4048209  84.8014855  84.6159585  71.6286921  90.4243815
  85.2558965  71.4875681  89.7266779  83.7837116  71.3421435  90.0482417
  96.4786839  79.7105353  89.3558075  96.9123345  79.6180642  90.2041129
  97.1918420  79.6862854  88.7178091  85.3919889  80.9289352  86.5378808
  86.1860488  80.4339672  86.3361383  84.6811582  80.4007215  86.1746513
  90.2114734  83.3107447  90.8891176  90.2651756  83.8798384  91.6568891
  89.3429515  83.4809332  90.5245213  81.7002653  75.0732434  82.6138561
  80.7700241  75.0116889  82.8308523  81.7960125  74.5508386  81.8175202
  81.6188202  71.5987246  85.2016802  81.8795019  72.5132580  85.0925963
  82.4405374  71.1311689  85.3513415  83.0913127  73.0125004  92.3715627
  83.7636181  72.8042366  91.7228276  82.2642914  72.8147090  91.9320859
  97.3402388  79.7529054  91.8890960  97.5338278  80.6574864  92.1350235
  97.2403007  79.2936473  92.7229545  88.9938699  69.6386944  94.3881288
  88.3466614  70.3376894  94.2945764  89.7639715  70.0723088  94.7557536
  92.4017497  79.9035797  97.4631841  92.2503003  79.6746348  96.5461925
  92.3922177  80.8606398  97.4763186  89.1702833  77.4767709  92.4478107
  90.0994893  77.6278869  92.2747075  88.7493863  77.5651730  91.5926754
  87.9691165  81.5018374  90.2176645  87.8302251  81.1337158  91.0902583
  87.1805761  82.0166013  90.0460603  88.5639317  86.6027470  81.5602182
  88.7391073  86.1315513  82.3747804  87.8772105  87.2293236  81.7883442
  89.5196380  80.8799977  87.6065483  89.1846213  80.8400746  88.5023133
  89.0200326  80.2144692  87.1335893  83.4940624  76.2867607  93.1318064
  83.3560422  75.5547845  93.7329603  84.4045548  76.1976507  92.8502252
  92.4555572  78.2256011  77.8802542  91.8384743  77.5002839  77.7835595
  91.9872061  78.9865371  77.5369617  86.1222925  75.9987566  92.6201744
  86.8322544  75.3580758  92.5788362  86.0792233  76.2500461  93.5427924
  94.1109704  82.9354919  95.5408323  94.0522250  82.2514139  94.8738906
  94.5129222  83.6773909  95.0888949  84.8351859  72.9852784  94.4397383
  84.2989216  72.5343522  95.0918979  84.2468567  73.1198693  93.6967847
  83.1300403  89.7516833  88.3342042  83.3697001  90.3835357  89.0121060
  82.2869599  89.4004873  88.6207401  84.2454118  72.4441435  77.0023847
  83.3683584  72.3230236  76.6386093  84.7211871  71.6527513  76.7502735
  94.1127111  80.8994503  93.7722302  93.2253890  80.5620425  93.8948701
  94.6825662  80.1677534  94.0091068  80.5690980  72.1208791  91.5250378
  80.4849169  71.5134461  90.7900787  79.7473687  72.6117810  91.5259874
  87.6428264  85.5595955  90.7383546  87.5698436  86.3650927  91.2502850
  87.2005657  85.7587921  89.9131567  87.4318044  84.7967726  84.2486367
  86.6485566  85.3389406  84.3424592  88.1310789  85.3141705  84.6480608
  90.7414694  70.6062355  86.8920573  91.2383394  69.8532317  86.5721643
  89.9701676  70.6426672  86.3263782  98.5944452  76.3102721  88.5338864
  98.5834328  77.1927436  88.1632797  97.7261831  75.9574271  88.3393401
  90.1026948  85.4582790  92.8941704  90.8154920  86.0930254  92.8217606
  89.6116977  85.5546656  92.0781706  91.8244475  79.3634042  84.4658996
  90.8900754  79.4835505  84.2963700  92.0021143  78.4606509  84.2019006
  87.3249663  72.7479738  86.6192257  86.9547450  72.1950778  87.3073163
  87.8208755  72.1437871  86.0667257  95.2117026  75.2051361  85.0009030
  95.6777478  76.0379353  84.9269333  95.6624527  74.7396343  85.7054289
  85.1538861  83.2077233  93.7147275  85.8548321  83.8413716  93.8676669
  84.6833976  83.5491965  92.9542914  93.2793257  81.5495183  81.9995182
  93.5553101  81.4351777  82.9089056  92.4097756  81.1512668  81.9607355
  93.1833689  67.5731948  89.0399931  92.2696769  67.8036175  89.2082138
  93.6126790  67.6570393  89.8913964  92.9540147  75.7621840  91.5399825
  92.3011598  76.0097748  90.8852278  93.3320527  74.9485979  91.2062303
  89.9147321  85.7981534  85.6427996  90.0969716  84.9803190  86.1055748
  90.7380307  86.0149226  85.2052886  90.2489487  84.7249719  82.9043044
  90.7777253  84.2142173  82.2913206  90.5117706  84.4092249  83.7688577
  89.0027720  76.5041651  98.0265863  88.3268357  76.4035781  98.6968238
  89.8255354  76.3480865  98.4901860  80.7506579  82.7413588  90.6478378
  81.3360016  81.9957276  90.7806282  80.5531418  83.0517545  91.5315042
  83.6045235  85.7764835  85.6640820  82.9355610  86.2610963  85.1804860
  83.4658104  86.0234056  86.5784199  87.7450503  87.8108579  92.2623479
  88.2968811  87.9740200  93.0272564  88.0856697  88.4013017  91.5903503
  82.7214997  70.1583729  92.8645363  82.7856323  71.0198560  92.4522761
  82.6582117  69.5457730  92.1317722  82.1967269  72.2306861  96.5118398
  82.8239308  71.8483939  97.1255922  81.3395188  72.0121063  96.8774090
  92.5961378  82.6369836  98.1172133  93.1401282  83.2499795  97.6227088
  92.0148222  83.1949415  98.6339146  78.9732812  74.0383290  82.4436752
  79.2686253  73.1293969  82.3903806  78.0720848  74.0171030  82.1217755
  90.8818891  85.7590554  89.2487161  90.7570030  84.9580294  88.7398106
  91.5397982  86.2536748  88.7601131  82.5027059  72.1139287  88.4264301
  81.7813645  72.7275255  88.2871774  83.2920315  72.6497052  88.3480947
  92.9453799  83.5599575  90.8766711  91.9984134  83.4404926  90.8045038
  93.2936572  82.6722073  90.9592972  85.3053372  69.4493713  94.7004953
  85.8287774  69.6956010  95.4631262  85.0865706  70.2813748  94.2808090
  80.7020653  71.7197388  82.5676078  80.3733360  70.8394767  82.3851183
  81.0560024  71.6645057  83.4552467  89.9500232  83.3552291  87.0771063
  89.8025195  82.4268998  87.2578633  90.7753726  83.3772381  86.5928138
  83.8162477  72.0070358  82.9351555  84.1558549  72.5356279  82.2130164
  84.2634597  72.3450764  83.7110122  93.5534354  84.1780849  88.1635936
  94.4780902  83.9723711  88.0260387  93.3849657  83.9297251  89.0725277
  86.5105917  70.3907409  92.3854623  86.1702738  69.5915222  92.7875303
  85.8044924  70.6909119  91.8131456  87.1622389  67.4756721  90.8381946
  87.9848459  67.0017199  90.7160837  87.4060453  68.2547205  91.3380633
  85.8030624  70.5044979  81.1344848  86.5238986  70.8826232  80.6308565
  85.1795928  71.2233856  81.2379826  89.9461747  71.2090128  82.0703180
  90.1625361  72.0914766  81.7692008  89.4655814  70.8176342  81.3408822
  84.6860968  74.1675842  88.6473925  84.5405549  74.4816145  89.5398206
  84.2086172  74.7860742  88.0944824  86.5457351  71.1578390  88.6954814
  86.5318920  70.2619483  88.3587112  87.2629779  71.1649053  89.3293100
  88.3983482  71.5915730  90.7407942  88.1401259  72.5132800  90.7392272
  87.8668522  71.1946164  91.4308406  93.3429670  84.6966517  83.5198027
  93.5166548  84.1312939  82.7671880  93.8358562  85.4967412  83.3377517
  79.1606630  76.7081186  91.5861586  78.6160098  77.4840994  91.7181860
  80.0385980  77.0551991  91.4280707  85.9494247  70.0392770  83.9642385
  86.0710158  69.1109416  84.1633272  85.6596289  70.0531456  83.0520700
  88.8185437  67.7247680  87.1009104  88.8407134  67.7887013  86.1461084
  89.2353496  66.8852189  87.2949611  99.1969061  77.4602940  85.1388327
  99.6400208  76.7110265  84.7407450  98.3195572  77.4513076  84.7562059
  94.3304843  84.0133281  80.6194926  95.0255747  84.6339974  80.8382240
  94.6727993  83.1628633  80.8947303  79.9472652  75.8351082  94.4791743
  79.2054388  75.9833718  95.0656373  79.6265396  76.0959348  93.6158492
  96.2296266  81.4632987  82.1482256  96.7547590  81.8020260  81.4231576
  96.1418618  80.5280002  81.9645391  87.8916315  85.3767061  94.2772133
  88.2003441  85.1316207  95.1494833  88.6891797  85.5813699  93.7891003
  87.9136927  87.5304970  86.5077509  87.4741917  87.0381349  87.2010366
  88.6645044  86.9877938  86.2669585  80.3929266  83.7216511  86.5102138
  81.2187286  83.4220283  86.1300781  80.0423318  82.9524133  86.9591926
  85.3610799  83.0742979  88.5799811  84.7390808  82.4113684  88.2802039
  86.0315666  83.1004111  87.8973459  78.5937871  81.6402837  87.4691071
  77.7569779  81.2125012  87.2875072  78.5661516  81.8335281  88.4061862
  85.4335326  71.5524767  98.1732317  85.4823482  72.4286890  97.7910087
  85.9757841  71.0102160  97.6003960  95.9190172  82.0965891  97.4533454
  95.1285716  82.0790029  96.9137954  95.6823527  82.6354184  98.2082491
  96.0388047  78.9458357  94.7666183  96.0886052  78.7808364  95.7081706
  95.9301970  78.0785616  94.3764064  84.9224306  81.6246903  82.0558272
  85.0712426  82.3082367  81.4024944  85.7290749  81.6051993  82.5707727
  93.3291809  74.9289285  96.0825490  94.2301672  74.7895750  95.7909487
  93.4039784  75.0943740  97.0223667  87.6634615  72.3056140  94.9278676
  86.7937924  72.5989706  94.6561264  87.8994095  72.8896585  95.6485939
  97.5406244  81.3655298  95.0108204  97.2491052  81.7285279  95.8471665
  96.9278375  80.6522307  94.8321536  98.7401926  78.9308178  87.5310775
  99.5748818  79.3697982  87.6948335  98.8761055  78.4546831  86.7119020
  95.7893432  76.4887913  93.4788262  96.2647554  76.6815559  92.6707114
  94.8658997  76.5447099  93.2331646  82.6776939  77.6512080  83.0619341
  82.4322981  76.7474410  83.2599551  82.8472853  77.6529231  82.1198819
  90.3673649  68.5235757  92.4444096  90.8855592  69.2596784  92.1190585
  90.0128781  68.8299750  93.2790855  81.9472586  73.3840438  80.5605502
  81.2541831  73.4584793  79.9045538  81.7024338  72.6200781  81.0827019
  90.6186243  64.9436039  87.9644993  90.8987997  64.2759228  88.5905419
  91.4036850  65.1365135  87.4519657  88.4219711  84.1195033  79.5270019
  87.8493678  84.7385220  79.0740491  88.9952505  84.6694395  80.0609941
  94.4895101  73.3653673  91.7116568  95.4412524  73.4651771  91.7328792
  94.3198552  72.5731942  92.2214652  92.5109481  70.4509256  91.8975969
  91.9159413  70.7314269  91.2022457  92.2259177  70.9403157  92.6692710
  91.6416971  84.4032183  80.6578601  92.5747644  84.3377745  80.8611477
  91.5540184  85.2388450  80.1993134  94.2704988  83.7198054  77.6182549
  94.1918619  83.3857917  78.5118307  95.0914655  84.2119821  77.6174021
  96.9683179  76.5859793  90.8258868  96.9359499  75.6475794  91.0118551
  97.5783803  76.6643830  90.0924692  88.8066510  75.4555846  76.8686072
  89.7525614  75.3262054  76.9374490  88.4280755  74.7170508  77.3455500
  97.1177667  73.3770836  90.8717151  96.6016716  72.5929293  90.6847080
  98.0017616  73.0489553  91.0363670  94.7788394  67.1211852  86.8312963
  94.5813215  66.8126940  87.7156295  95.3888100  67.8473491  86.9610893
 102.7859729  77.6475800  89.9664904 103.5163117  77.3861088  90.5272608
 102.1766674  76.9104522  90.0066972 100.8675026  75.7883662  90.5639356
 100.1408189  75.6539627  89.9555847 100.4522313  76.0960491  91.3696074
  88.6905202  79.5073592  98.3286729  89.6108212  79.6852191  98.5226775
  88.6554785  78.5629637  98.1766428  86.9909427  73.3805822  76.8040957
  86.0840882  73.0838935  76.8803670  87.2685408  73.0835640  75.9375243
  81.6867275  77.4174627  90.9709510  81.9053285  78.3491734  90.9897544
  82.0993049  77.0582601  91.7564314  88.6071493  67.9242712  82.9585198
  87.7972221  67.5789797  83.3340444  89.2955910  67.6150256  83.5472810
  90.5362041  67.0020759  84.5809495  91.0893080  67.4216212  85.2399518
  90.7732127  66.0756507  84.6232451  86.5595140  72.9907832 100.3612259
  86.4591867  73.9402189 100.2924350  86.3416682  72.6626071  99.4888329
  85.7608212  70.2392757  76.9452936  86.6227376  70.5647656  77.2048753
  85.9458556  69.4524253  76.4326002  77.7775627  78.3215097  89.2233125
  77.0839099  77.9069050  88.7103079  78.5248618  78.3635634  88.6266544
  93.9140848  69.1121284  84.0888159  93.3339517  69.7706088  83.7066211
  93.6476781  68.2898628  83.6775577  92.3644414  68.5126342  86.2909479
  92.8644193  68.6242876  85.4823798  93.0080022  68.2087394  86.9310288
  86.4226410  76.4204971  99.1777320  85.9393492  77.2205331  99.3841209
  86.5087349  76.4312916  98.2244764  79.6912370  78.2533351  87.0999140
  79.6683058  78.3521038  86.1481023  80.0013006  79.0998502  87.4216306
  82.3499748  80.3109506  91.2145754  83.3043001  80.2793448  91.1475686
  82.1512271  79.8500130  92.0295980  82.9399130  78.8810622  93.7816552
  83.7592019  79.3754701  93.8051389  83.2135938  77.9642590  93.7534119
  92.6965726  71.2721374  83.1444507  91.8091581  71.5571025  82.9264702
  93.1119715  71.1115138  82.2971784  96.0480262  71.2967895  86.8598847
  96.8240652  71.7864348  87.1323463  95.3228396  71.7225949  87.3170716
  98.4852821  72.0095514  87.9172787  99.0797312  71.7691250  87.2066095
  98.5579404  71.2902645  88.5446323  80.7049976  85.8529125  88.2315952
  80.5704444  85.0929526  87.6653950  80.2882039  86.5770025  87.7644741
  91.8408939  81.0366049  77.2392527  92.5444790  81.2416051  77.8550183
  91.1171588  81.6042811  77.5041611  92.6706750  76.7875910  83.3594797
  92.6141951  77.2444462  82.5202430  93.2235092  76.0266595  83.1817640
  96.4811556  72.5765642  84.1844917  96.2248490  72.1762278  85.0153125
  95.8564424  73.2909436  84.0595056 100.7923894  75.3161715  86.6916208
 100.2323452  75.3854905  87.4647770 100.1867397  75.1402700  85.9715705
  83.8619102  86.7498442  88.4434395  83.7451487  87.6943875  88.3413085
  83.0411549  86.4472004  88.8320194  93.7495637  81.4748578  79.2890987
  94.5841241  81.0429777  79.1068462  93.5879980  81.3030592  80.2167882
  93.4041529  77.9780691  80.6547327  93.3490333  77.8124963  79.7135771
  92.7787584  78.6856724  80.8109516  78.1934044  73.2148756  94.4808749
  78.8392908  72.7047710  94.9695974  77.9851195  73.9517437  95.0552174
  90.7187436  80.2829603  99.9800889  91.5878596  80.4570256  99.6187524
  90.2394188  81.1024020  99.8576619  86.7137655  67.4788800  80.2332645
  86.7016324  68.4230640  80.3900916  87.6061076  67.2958946  79.9392106
  84.8873616  87.4026704  91.6590323  85.7900863  87.4350315  91.9756818
  84.6610987  86.4727155  91.6736659  86.6427219  86.1557691  88.3200402
  85.6922850  86.1559552  88.2064774  86.9459705  85.4090425  87.8036436
  90.5289774  64.0731577  84.4878582  89.7622170  63.5190064  84.6335264
  90.9400479  64.1453446  85.3492733  82.5331535  70.3616373  98.5783763
  83.3962997  70.0053178  98.7887088  81.9596946  70.0230268  99.2659167
 102.3779912  91.9918229  89.3846164 103.0158322  91.8724977  88.6809504
 102.2600755  92.9399073  89.4434116  99.1869618  91.9445657  89.3207689
  98.8488130  91.8286722  88.4328224 100.0559386  91.5436822  89.3008695
  95.0456434  93.7981134  85.3104580  94.4821299  93.7071071  84.5420867
  94.9308829  92.9781038  85.7907072  99.6689401  93.0980509  95.2793894
  99.6578042  92.7033307  94.4074398  99.8310041  92.3646582  95.8727666
  92.5920866  95.2932325  88.1488800  93.3842158  94.9523150  87.7335099
  92.8317516  95.4027300  89.0690954 100.6255993  97.4652101  80.6219045
  99.9743972  98.0506182  80.2353058 101.4200355  97.9958296  80.6814082
  94.5511620  94.5541239  81.0206179  95.3242496  94.0070226  80.8819055
  94.9037019  95.4185488  81.2320640  96.3896662  95.8817621  94.2273078
  96.0986528  96.7863252  94.1119745  97.0253647  95.9234148  94.9417148
  97.3152869  93.2594469  90.8174438  97.9116442  93.0350492  90.1031401
  97.3727841  92.5179215  91.4199886  96.8877898  90.7133905  78.6524629
  97.1403418  90.1915426  77.8908092  95.9502457  90.5500050  78.7551313
 101.9321180  89.7169683  86.4599372 102.7184270  89.2989106  86.1089789
 102.1959885  90.6215775  86.6281021 102.1031258  95.1542533  81.1588029
 101.4677091  95.2277160  81.8708934 101.7728664  95.7436132  80.4807108
 107.3329608  89.6544916  87.3632351 108.0654780  89.0844133  87.5970180
 106.5768963  89.2666517  87.8038856  96.6074186  92.6162011  80.8549004
  96.4910444  91.9406914  81.5230088  96.7176446  92.1294385  80.0381157
  98.9505727  92.0772158  84.5595693  98.5863935  91.5502779  85.2708615
  99.8072843  91.6870627  84.3862179 104.8555028  83.3666490  91.8226959
 104.5238353  84.2361901  91.5988174 104.2600641  83.0502774  92.5020990
  98.5911214  87.1062057  79.5557042  98.7585617  87.9742294  79.9227513
  98.4008383  87.2689339  78.6318331 101.3486547  95.5679036  91.2222872
 101.0487271  96.4704075  91.1138679 101.0037607  95.3011220  92.0744025
  94.7999029  92.0192833  87.2559576  93.8749525  91.8869047  87.4637268
  95.0483442  92.7987052  87.7529519 104.7483691  88.0861577  88.9020309
 103.8400569  88.0176985  88.6079070 104.6971287  88.5633521  89.7302135
  98.5700435  89.5619715  80.5403708  98.4500060  90.0076766  81.3789189
  97.8753024  89.9105033  79.9817247  92.1607840  91.6626107  88.0903365
  92.2900221  91.9160586  89.0042777  91.4805291  92.2553815  87.7708021
  96.3307327 102.3323357  84.1893840  96.2531357 103.2831182  84.2682320
  95.7268971 101.9869229  84.8468766  98.8224557  89.5051222  96.8455207
  98.0457891  90.0645142  96.8358071  99.4615120  89.9908005  97.3670077
 106.6145338  86.2878015  90.6798183 105.9719718  86.5810548  90.0337978
 106.1100266  86.1730935  91.4851380 104.2685501  90.0341188  81.3684042
 105.1803357  90.2668575  81.1931740 103.7595148  90.6178232  80.8059121
  97.0770929  92.3136676  96.4073174  97.8185614  92.8521719  96.1307997
  96.3707915  92.9402964  96.5644725 102.5526269  94.4565816  95.0045335
 102.9609625  94.0148226  94.2599967 101.8303531  93.8818443  95.2579528
  98.9057339  89.3938423  92.3778892  99.7518534  89.8177836  92.5213541
  98.8455977  88.7372047  93.0717455 102.8755084  95.0167007  88.7597624
 102.2463946  95.1812721  88.0573692 102.4880746  95.4308616  89.5308588
 106.7544316  95.9521444  86.1141988 106.0695354  96.3320346  85.5639021
 106.8388165  96.5616771  86.8473935 102.0556784  87.0542791  94.0360066
 101.8117716  87.8084852  93.4994341 102.3316715  87.4328139  94.8707313
 104.0095247  93.5981403  92.7137331 104.2212142  94.2413163  92.0371712
 103.9624995  92.7643720  92.2459261 101.6121476  86.2099224  89.6173903
 100.7505955  86.5080478  89.9090641 101.6383911  86.4269623  88.6854936
  98.4283046  94.7541415  86.0247709  98.8921391  95.0329118  85.2352332
  98.1639844  93.8524859  85.8420800  95.3207127  94.3012896  88.9627472
  95.8908484  94.7300165  88.3244957  95.9115238  94.0195481  89.6611658
  97.3651932  90.8764567  82.8337274  98.0675975  91.3285611  83.3011201
  97.0332560  90.2348386  83.4617167  95.8132293  89.4676324  97.2088484
  95.1830954  90.1492605  97.4423880  95.7068381  89.3559405  96.2641622
  91.1077266  89.1348120  88.1354408  90.3176320  89.3905648  87.6594518
  91.5988513  89.9496458  88.2406448 105.1241075  96.4753359  90.8859689
 105.9458519  96.0733546  90.6042370 105.1203478  96.3721593  91.8375804
  93.0592011  89.4992699  85.0937884  92.2623174  89.6111393  85.6121380
  92.8317603  89.8379351  84.2278775  98.8897679  96.0237402  93.0420399
  98.9542111  96.4857809  93.8778571  98.1808602  95.3934767  93.1702709
  89.3914969  89.3878610  90.5669399  89.6423007  90.2725620  90.8326974
  89.9274517  89.2083212  89.7944490 113.2147068  92.8192107  87.2344660
 112.4610777  92.2499505  87.0788664 113.3494609  92.7854772  88.1815295
  98.6045696  97.6905510  82.9099379  98.4691371  98.5357045  83.3384227
  99.1455509  97.8924787  82.1465313  95.0913036  83.7697090  99.5713735
  94.6979981  83.2163288 100.2461379  95.9079176  84.0807668  99.9620252
  92.0575094  95.2080948  83.4827304  92.5699614  96.0024198  83.6332869
  92.7097806  94.5107238  83.4160906  93.8669978  98.3246704  85.5650058
  94.0436607  99.2464669  85.3771042  94.6626812  98.0105123  85.9944437
  98.0080997  85.1854969  97.1633991  98.7490710  85.7862122  97.0838454
  98.2398920  84.4432606  96.6052034  93.1522335  90.3711336  95.4412221
  93.0375850  89.4696593  95.7419320  92.2966853  90.6175033  95.0897037
 100.2314173  98.3129076  97.0399721  99.7878027  97.5265455  96.7220626
 100.8931386  98.5008227  96.3743612  94.9901294  99.8424878  91.5660400
  95.5408719  99.7141941  90.7937394  94.1512770 100.1419767  91.2155293
 102.3295411  98.5931876  95.0681123 102.3113886  99.4140757  94.5761392
 103.2515331  98.4685951  95.2931264  98.7868465  96.1076006  95.9104631
  99.3196802  95.3464294  95.6803939  98.2582546  95.8149657  96.6528786
 101.9538160  81.2136072  91.4398273 101.6102429  82.1037713  91.3637383
 102.3217122  81.0237729  90.5767858  90.0224010  93.5369602  84.2586875
  90.8599232  93.9466610  84.0420583  90.2002278  92.5969044  84.2287069
 101.9188442  91.2044683  79.9470708 101.4035066  91.9749287  80.1859095
 101.6465751  90.5309819  80.5703769  99.5035554  86.0494383  85.0055946
  98.6477150  85.6601234  84.8261585  99.9162505  86.1286344  84.1455732
 101.0334700  83.5840727  89.4047506 100.5299496  83.5470862  88.5915311
 101.3265307  84.4933469  89.4644163  97.2777586  83.6679456  88.4113688
  98.1430583  83.4722265  88.0519577  97.3455095  83.4389808  89.3383045
 106.8922717  93.9577037  81.8823881 106.1152159  93.6188197  81.4379044
 107.5714198  93.9629660  81.2078847 101.7074746  89.0771775  81.7730489
 101.4024881  89.3917924  82.6240632 102.6605188  89.1553195  81.8157822
 100.1521178  95.2361998  83.4223443  99.6242539  94.5014758  83.1096681
  99.6508680  96.0136674  83.1763411 105.1314024  93.4311019  88.5390489
 104.4737698  94.1210280  88.6270618 105.9354423  93.8207451  88.8824476
  94.8839905  85.8981664  85.7830055  95.4583657  85.6756846  85.0503248
  95.4710888  85.9670359  86.5358656 103.9419482  91.7855391  86.5894431
 104.4551364  92.4185383  87.0916141 104.5920706  91.1856587  86.2237791
  95.2109492  87.9286125  79.8025940  94.3746804  88.2660812  80.1235215
  95.0714262  87.7935105  78.8653077  97.1862573  82.7722913  84.5105124
  96.5326985  82.4571930  83.8861739  97.1443047  82.1498654  85.2364947
  98.2973778  93.0542208  76.4258416  97.3900839  92.8231462  76.6249565
  98.7944810  92.2579828  76.6132398 101.2041857 101.7639716  79.3455102
 100.5303555 102.0671412  79.9540060 101.5907679 102.5668796  78.9960559
 100.4200313  89.2604847  88.8352772  99.5022875  89.4819794  88.6774460
 100.8360457  89.3351157  87.9764479 101.2035361  90.6596262  83.9655452
 101.9507180  91.1717660  83.6562574 101.4726951  90.3380315  84.8259846
  99.4762011  93.1554803  80.9482406  98.5673230  92.8713836  81.0454876
  99.5057095  93.5753882  80.0885713 104.7081279  96.7661393  84.7173574
 104.2543606  95.9252303  84.7738764 104.0775245  97.4022791  85.0548354
 103.6514198  87.6953379  85.9474241 102.9136955  87.1830765  86.2784484
 103.9040972  87.2553760  85.1357518 103.1514218  98.6037889  85.6523392
 103.4437192  99.1642947  84.9335758 103.6612838  98.8966450  86.4076551
 103.7525825  80.4729631  86.5416011 104.0584702  79.6126994  86.2541926
 104.4778430  81.0647251  86.3415004  90.0450182  90.8760317  84.9297608
  89.8474581  90.2829678  84.2048675  89.4896846  90.5712528  85.6473547
  98.0246905  90.7683424  87.0492202  98.0795515  89.8157260  86.9734678
  97.2138107  90.9242863  87.5333500  99.1738099  94.6963547  78.2870485
  98.7357529  93.9799406  77.8276122  99.9148540  94.9239662  77.7255576
  95.9639265  89.3860484  84.8082580  95.1507131  89.6854654  85.2147773
  96.4598259  88.9916172  85.5257063  98.1147843  99.3818240  86.7416845
  98.0724022  99.6079087  85.8125377  99.0310542  99.1481615  86.8902646
 101.5613477  89.8502308  93.6397474 101.9162864  90.0773781  94.4991940
 102.2085608  90.1820685  93.0174730 107.2911214  92.9720744  84.3446803
 107.1529112  93.1622340  83.4167993 106.9347433  93.7340127  84.8014855
  95.4553340  86.9578839  90.4243815  96.0952719  86.8167598  89.7266779
  94.6230870  86.6713352  90.0482417 107.3180593  95.0397271  89.3558075
 107.7517100  94.9472560  90.2041129 108.0312174  95.0154771  88.7178091
  96.2313644  96.2581269  86.5378808  97.0254242  95.7631590  86.3361383
  95.5205336  95.7299133  86.1746513 101.0508488  98.6399365  90.8891176
 101.1045511  99.2090301  91.6568891 100.1823270  98.8101250  90.5245213
  92.5396407  90.4024351  82.6138561  91.6093995  90.3408807  82.8308523
  92.6353879  89.8800304  81.8175202  92.4581956  86.9279164  85.2016802
  92.7188774  87.8424497  85.0925963  93.2799129  86.4603607  85.3513415
  93.9306882  88.3416921  92.3715627  94.6029935  88.1334283  91.7228276
  93.1036668  88.1439007  91.9320859 108.1796143  95.0820972  91.8890960
 108.3732033  95.9866782  92.1350235 108.0796761  94.6228391  92.7229545
  99.8332454  84.9678862  94.3881288  99.1860369  85.6668812  94.2945764
 100.6033469  85.4015006  94.7557536 103.2411252  95.2327714  97.4631841
 103.0896758  95.0038266  96.5461925 103.2315931  96.1898316  97.4763186
 100.0096588  92.8059627  92.4478107 100.9388648  92.9570787  92.2747075
  99.5887618  92.8943648  91.5926754  98.8084920  96.8310291  90.2176645
  98.6696005  96.4629076  91.0902583  98.0199516  97.3457931  90.0460603
  99.4033072 101.9319388  81.5602182  99.5784827 101.4607431  82.3747804
  98.7165860 102.5585154  81.7883442 100.3590135  96.2091894  87.6065483
 100.0239968  96.1692664  88.5023133  99.8594081  95.5436610  87.1335893
  94.3334379  91.6159524  93.1318064  94.1954177  90.8839763  93.7329603
  95.2439302  91.5268424  92.8502252 103.2949327  93.5547929  77.8802542
 102.6778497  92.8294757  77.7835595 102.8265815  94.3157289  77.5369617
  96.9616680  91.3279484  92.6201744  97.6716298  90.6872676  92.5788362
  96.9185988  91.5792378  93.5427924 104.9503458  98.2646837  95.5408323
 104.8916004  97.5806057  94.8738906 105.3522977  99.0065827  95.0888949
  95.6745614  88.3144701  94.4397383  95.1382971  87.8635440  95.0918979
  95.0862322  88.4490610  93.6967847  93.9694157 105.0808751  88.3342042
  94.2090755 105.7127275  89.0121060  93.1263353 104.7296791  88.6207401
  95.0847872  87.7733353  77.0023847  94.2077339  87.6522154  76.6386093
  95.5605626  86.9819431  76.7502735 104.9520865  96.2286421  93.7722302
 104.0647644  95.8912343  93.8948701 105.5219417  95.4969452  94.0091068
  86.6050013  92.5610513  87.0965354  87.2921052  92.2472243  86.5086369
  86.4498141  93.4651877  86.8232605  91.4084735  87.4500709  91.5250378
  91.3242923  86.8426379  90.7900787  90.5867441  87.9409727  91.5259874
  98.4822019 100.8887873  90.7383546  98.4092190 101.6942845  91.2502850
  98.0399412 101.0879839  89.9131567  98.2711798 100.1259643  84.2486367
  97.4879320 100.6681323  84.3424592  98.9704544 100.6433623  84.6480608
 101.5808449  85.9354273  86.8920573 102.0777148  85.1824235  86.5721643
 100.8095430  85.9718589  86.3263782 109.4338206  91.6394638  88.5338864
 109.4228082  92.5219354  88.1632797 108.5655585  91.2866189  88.3393401
 100.9420702 100.7874707  92.8941704 101.6548675 101.4222172  92.8217606
 100.4510731 100.8838573  92.0781706 102.6638229  94.6925960  84.4658996
 101.7294508  94.8127422  84.2963700 102.8414898  93.7898427  84.2019006
  98.1643417  88.0771656  86.6192257  97.7941205  87.5242696  87.3073163
  98.6602510  87.4729789  86.0667257 106.0510781  90.5343279  85.0009030
 106.5171233  91.3671271  84.9269333 106.5018281  90.0688261  85.7054289
  95.9932616  98.5369151  93.7147275  96.6942075  99.1705634  93.8676669
  95.5227731  98.8783882  92.9542914 104.1187012  96.8787100  81.9995182
 104.3946856  96.7643695  82.9089056 103.2491510  96.4804585  81.9607355
 104.0227443  82.9023866  89.0399931 103.1090523  83.1328093  89.2082138
 104.4520545  82.9862310  89.8913964 103.7933902  91.0913758  91.5399825
 103.1405352  91.3389666  90.8852278 104.1714282  90.2777896  91.2062303
 100.7541076 101.1273451  85.6427996 100.9363470 100.3095107  86.1055748
 101.5774062 101.3441144  85.2052886 101.0883241 100.0541636  82.9043044
 101.6171008  99.5434091  82.2913206 101.3511461  99.7384167  83.7688577
  99.8421475  91.8333569  98.0265863  99.1662112  91.7327698  98.6968238
 100.6649109  91.6772783  98.4901860  91.5900334  98.0705506  90.6478378
  92.1753771  97.3249194  90.7806282  91.3925172  98.3809462  91.5315042
  94.4438989 101.1056753  85.6640820  93.7749364 101.5902881  85.1804860
  94.3051859 101.3525974  86.5784199  86.1817989  90.6411106  89.3682821
  86.2202088  90.1074697  90.1619939  85.6758282  90.1146311  88.7493798
  98.5844258 103.1400497  92.2623479  99.1362566 103.3032118  93.0272564
  98.9250451 103.7304934  91.5903503  93.5608751  85.4875646  92.8645363
  93.6250078  86.3490477  92.4522761  93.4975871  84.8749648  92.1317722
  93.0361024  87.5598779  96.5118398  93.6633062  87.1775856  97.1255922
  92.1788942  87.3412981  96.8774090  89.8126566  89.3675208  82.4436752
  90.1080007  88.4585886  82.3903806  88.9114602  89.3462948  82.1217755
 101.7212645 101.0882472  89.2487161 101.5963785 100.2872212  88.7398106
 102.3791736 101.5828666  88.7601131  93.3420813  87.4431205  88.4264301
  92.6207399  88.0567172  88.2871774  94.1314069  87.9788969  88.3480947
 103.7847553  98.8891492  90.8766711 102.8377889  98.7696843  90.8045038
 104.1330327  98.0013990  90.9592972  96.1447127  84.7785631  94.7004953
  96.6681529  85.0247928  95.4631262  95.9259460  85.6105666  94.2808090
  91.5414408  87.0489306  82.5676078  91.2127114  86.1686685  82.3851183
  91.8953779  86.9936974  83.4552467 100.7893987  98.6844208  87.0771063
 100.6418949  97.7560916  87.2578633 101.6147480  98.7064299  86.5928138
  94.6556231  87.3362276  82.9351555  94.9952304  87.8648197  82.2130164
  95.1028352  87.6742682  83.7110122 104.3928109  99.5072767  88.1635936
 105.3174656  99.3015629  88.0260387 104.2243412  99.2589168  89.0725277
  97.3499672  85.7199326  92.3854623  97.0096492  84.9207139  92.7875303
  96.6438678  86.0201037  91.8131456  98.0016144  82.8048639  90.8381946
  98.8242213  82.3309117  90.7160837  98.2454207  83.5839122  91.3380633
  96.6424378  85.8336897  81.1344848  97.3632741  86.2118150  80.6308565
  96.0189682  86.5525774  81.2379826 100.7855501  86.5382046  82.0703180
 101.0019115  87.4206684  81.7692008 100.3049568  86.1468260  81.3408822
  95.5254722  89.4967759  88.6473925  95.3799303  89.8108062  89.5398206
  95.0479926  90.1152660  88.0944824  97.3851105  86.4870307  88.6954814
  97.3712674  85.5911401  88.3587112  98.1023533  86.4940971  89.3293100
  99.2377236  86.9207648  90.7407942  98.9795014  87.8424718  90.7392272
  98.7062276  86.5238082  91.4308406 104.1823425 100.0258435  83.5198027
 104.3560302  99.4604857  82.7671880 104.6752316 100.8259330  83.3377517
  90.0000385  92.0373104  91.5861586  89.4553853  92.8132912  91.7181860
  90.8779734  92.3843908  91.4280707  96.7888001  85.3684688  83.9642385
  96.9103912  84.4401334  84.1633272  96.4990044  85.3823374  83.0520700
  99.6579192  83.0539598  87.1009104  99.6800888  83.1178931  86.1461084
 100.0747251  82.2144107  87.2949611 110.0362816  92.7894858  85.1388327
 110.4793962  92.0402183  84.7407450 109.1589326  92.7804994  84.7562059
 105.1698597  99.3425199  80.6194926 105.8649502  99.9631892  80.8382240
 105.5121747  98.4920550  80.8947303  90.7866406  91.1643000  94.4791743
  90.0448143  91.3125635  95.0656373  90.4659151  91.4251266  93.6158492
 107.0690020  96.7924905  82.1482256 107.5941344  97.1312177  81.4231576
 106.9812373  95.8571920  81.9645391  98.7310069 100.7058978  94.2772133
  99.0397196 100.4608125  95.1494833  99.5285551 100.9105617  93.7891003
  98.7530681 102.8596888  86.5077509  98.3135671 102.3673267  87.2010366
  99.5038798 102.3169856  86.2669585  91.2323020  99.0508429  86.5102138
  92.0581040  98.7512201  86.1300781  90.8817072  98.2816051  86.9591926
  96.2004553  98.4034897  88.5799811  95.5784563  97.7405602  88.2802039
  96.8709420  98.4296029  87.8973459  89.4331625  96.9694755  87.4691071
  88.5963534  96.5416930  87.2875072  89.4055271  97.1627199  88.4061862
  96.2729081  86.8816685  98.1732317  96.3217236  87.7578808  97.7910087
  96.8151595  86.3394078  97.6003960 106.8781802  94.2750275  94.7666183
 106.9279806  94.1100282  95.7081706 106.7695725  93.4077534  94.3764064
  95.7618060  96.9538820  82.0558272  95.9106181  97.6374285  81.4024944
  96.5684504  96.9343910  82.5707727 104.1685564  90.2581203  96.0825490
 105.0695427  90.1187667  95.7909487 104.2433538  90.4235657  97.0223667
  98.5028369  87.6348057  94.9278676  97.6331679  87.9281623  94.6561264
  98.7387850  88.2188502  95.6485939 108.3799998  96.6947216  95.0108204
 108.0884807  97.0577197  95.8471665 107.7672130  95.9814224  94.8321536
 109.5795681  94.2600096  87.5310775 110.4142572  94.6989900  87.6948335
 109.7154809  93.7838749  86.7119020 106.6287187  91.8179831  93.4788262
 107.1041308  92.0107477  92.6707114 105.7052752  91.8739017  93.2331646
  93.5170693  92.9803998  83.0619341  93.2716735  92.0766328  83.2599551
  93.6866608  92.9821148  82.1198819 101.2067403  83.8527674  92.4444096
 101.7249347  84.5888701  92.1190585 100.8522536  84.1591668  93.2790855
  92.7866341  88.7132355  80.5605502  92.0935586  88.7876710  79.9045538
  92.5418093  87.9492699  81.0827019 101.4579997  80.2727957  87.9644993
 101.7381751  79.6051146  88.5905419 102.2430604  80.4657052  87.4519657
  99.2613466  99.4486951  79.5270019  98.6887433 100.0677138  79.0740491
  99.8346259  99.9986312  80.0609941 105.3288856  88.6945591  91.7116568
 106.2806278  88.7943688  91.7328792 105.1592306  87.9023859  92.2214652
 103.3503235  85.7801174  91.8975969 102.7553167  86.0606187  91.2022457
 103.0652932  86.2695075  92.6692710 102.4810726  99.7324101  80.6578601
 103.4141399  99.6669663  80.8611477 102.3933938 100.5680368  80.1993134
 105.1098742  99.0489971  77.6182549 105.0312374  98.7149835  78.5118307
 105.9308409  99.5411739  77.6174021 107.8076933  91.9151711  90.8258868
 107.7753253  90.9767711  91.0118551 108.4177557  91.9935747  90.0924692
  99.6460264  90.7847763  76.8686072 100.5919369  90.6553972  76.9374490
  99.2674509  90.0462425  77.3455500 107.9571422  88.7062754  90.8717151
 107.4410471  87.9221211  90.6847080 108.8411370  88.3781471  91.0363670
 105.6182149  82.4503770  86.8312963 105.4206970  82.1418858  87.7156295
 106.2281854  83.1765408  86.9610893 113.6253483  92.9767717  89.9664904
 114.3556872  92.7153005  90.5272608 113.0160429  92.2396439  90.0066972
 111.7068780  91.1175580  90.5639356 110.9801944  90.9831545  89.9555847
 111.2916067  91.4252409  91.3696074  99.5298957  94.8365510  98.3286729
 100.4501966  95.0144109  98.5226775  99.4948540  93.8921555  98.1766428
  97.8303181  88.7097740  76.8040957  96.9234637  88.4130853  76.8803670
  98.1079162  88.4127558  75.9375243  88.7481122  90.0304103  87.2540003
  88.4283906  89.1769411  86.9614377  88.2014550  90.2452681  88.0097971
  92.5261029  92.7466544  90.9709510  92.7447039  93.6783652  90.9897544
  92.9386803  92.3874519  91.7564314  99.4465247  83.2534630  82.9585198
  98.6365975  82.9081715  83.3340444 100.1349664  82.9442173  83.5472810
 101.3755795  82.3312676  84.5809495 101.9286834  82.7508130  85.2399518
 101.6125882  81.4048424  84.6232451  97.3988895  88.3199750 100.3612259
  97.2985622  89.2694107 100.2924350  97.1810437  87.9917989  99.4888329
  96.6001966  85.5684675  76.9452936  97.4621130  85.8939573  77.2048753
  96.7852310  84.7816171  76.4326002  88.6169382  93.6507015  89.2233125
  87.9232853  93.2360968  88.7103079  89.3642373  93.6927551  88.6266544
 104.7534602  84.4413202  84.0888159 104.1733272  85.0998006  83.7066211
 104.4870535  83.6190546  83.6775577 103.2038169  83.8418259  86.2909479
 103.7037947  83.9534794  85.4823798 103.8473777  83.5379312  86.9310288
  97.2620165  91.7496889  99.1777320  96.7787246  92.5497249  99.3841209
  97.3481104  91.7604834  98.2244764  90.5306124  93.5825269  87.0999140
  90.5076812  93.6812956  86.1481023  90.8406761  94.4290419  87.4216306
  93.1893502  95.6401424  91.2145754  94.1436756  95.6085366  91.1475686
  92.9906026  95.1792047  92.0295980  93.7792884  94.2102540  93.7816552
  94.5985773  94.7046618  93.8051389  94.0529692  93.2934508  93.7534119
 103.5359481  86.6013292  83.1444507 102.6485336  86.8862943  82.9264702
 103.9513470  86.4407055  82.2971784 106.8874017  86.6259813  86.8598847
 107.6634407  87.1156265  87.1323463 106.1622151  87.0517867  87.3170716
 109.3246575  87.3387432  87.9172787 109.9191066  87.0983168  87.2066095
 109.3973159  86.6194563  88.5446323  91.5443731 101.1821043  88.2315952
  91.4098199 100.4221444  87.6653950  91.1275793 101.9061943  87.7644741
 102.6802694  96.3657967  77.2392527 103.3838544  96.5707969  77.8550183
 101.9565343  96.9334728  77.5041611 103.5100504  92.1167828  83.3594797
 103.4535706  92.5736379  82.5202430 104.0628847  91.3558512  83.1817640
 107.3205310  87.9057560  84.1844917 107.0642244  87.5054195  85.0153125
 106.6958178  88.6201354  84.0595056 111.6317648  90.6453633  86.6916208
 111.0717206  90.7146822  87.4647770 111.0261151  90.4694618  85.9715705
  94.7012857 102.0790360  88.4434395  94.5845241 103.0235793  88.3413085
  93.8805303 101.7763922  88.8320194 104.5889391  96.8040496  79.2890987
 105.4234995  96.3721694  79.1068462 104.4273734  96.6322509  80.2167882
 104.2435284  93.3072609  80.6547327 104.1884087  93.1416881  79.7135771
 103.6181339  94.0148642  80.8109516  89.0327799  88.5440673  94.4808749
  89.6786662  88.0339627  94.9695974  88.8244950  89.2809355  95.0552174
  97.5531409  82.8080718  80.2332645  97.5410079  83.7522558  80.3900916
  98.4454831  82.6250864  79.9392106  95.7267371 102.7318622  91.6590323
  96.6294618 102.7642232  91.9756818  95.5004741 101.8019073  91.6736659
  97.4820973 101.4849609  88.3200402  96.5316604 101.4851470  88.2064774
  97.7853459 100.7382343  87.8036436 101.3683528  79.4023495  84.4878582
 100.6015924  78.8481981  84.6335264 101.7794233  79.4745364  85.3492733
  93.3725290  85.6908291  98.5783763  94.2356751  85.3345095  98.7887088
  92.7990700  85.3522185  99.2659167 110.0263373 107.2737575  89.3207689
 109.6881884 107.1578640  88.4328224 110.8953141 106.8728740  89.3008695
 105.8850188 109.1273051  85.3104580 105.3215054 109.0362988  84.5420867
 105.7702584 108.3072956  85.7907072 103.4314620 110.6224243  88.1488800
 104.2235912 110.2815068  87.7335099 103.6711271 110.7319218  89.0690954
 105.3905374 109.8833156  81.0206179 106.1636250 109.3362143  80.8819055
 105.7430773 110.7477406  81.2320640 107.7271652 106.0425822  78.6524629
 107.9797173 105.5207344  77.8908092 106.7896211 105.8791968  78.7551313
 112.7714935 105.0461601  86.4599372 113.5578024 104.6281024  86.1089789
 113.0353639 105.9507693  86.6281021 112.9425012 110.4834451  81.1588029
 112.3070845 110.5569078  81.8708934 112.6122419 111.0728050  80.4807108
 118.1723362 104.9836834  87.3632351 118.9048534 104.4136051  87.5970180
 117.4162718 104.5958434  87.8038856 107.4467941 107.9453928  80.8549004
 107.3304199 107.2698832  81.5230088 107.5570201 107.4586302  80.0381157
 109.7899482 107.4064075  84.5595693 109.4257689 106.8794696  85.2708615
 110.6466598 107.0162545  84.3862179 115.6948782  98.6958408  91.8226959
 115.3632107  99.5653819  91.5988174 115.0994396  98.3794692  92.5020990
 109.4304969 102.4353975  79.5557042 109.5979371 103.3034212  79.9227513
 109.2402138 102.5981257  78.6318331 105.6392783 107.3484751  87.2559576
 104.7143280 107.2160965  87.4637268 105.8877197 108.1278970  87.7529519
 109.4094190 104.8911633  80.5403708 109.2893815 105.3368683  81.3789189
 108.7146778 105.2396950  79.9817247 103.0001594 106.9918024  88.0903365
 103.1293976 107.2452503  89.0042777 102.3199046 107.5845732  87.7708021
 115.1079256 105.3633106  81.3684042 116.0197112 105.5960493  81.1931740
 114.5988903 105.9470150  80.8059121 112.4515231 101.5391142  89.6173903
 111.5899710 101.8372395  89.9090641 112.4777665 101.7561541  88.6854936
 109.2676800 110.0833332  86.0247709 109.7315146 110.3621035  85.2352332
 109.0033598 109.1816777  85.8420800 106.1600881 109.6304814  88.9627472
 106.7302238 110.0592082  88.3244957 106.7508993 109.3487399  89.6611658
 108.2045686 106.2056485  82.8337274 108.9069729 106.6577528  83.3011201
 107.8726315 105.5640304  83.4617167 101.9471020 104.4640037  88.1354408
 101.1570074 104.7197566  87.6594518 102.4382267 105.2788375  88.2406448
 103.8985765 104.8284617  85.0937884 103.1016929 104.9403311  85.6121380
 103.6711358 105.1671269  84.2278775 100.2308723 104.7170528  90.5669399
 100.4816761 105.6017538  90.8326974 100.7668271 104.5375129  89.7944490
 109.4439451 113.0197427  82.9099379 109.3085125 113.8648963  83.3384227
 109.9849263 113.2216705  82.1465313 102.8968848 110.5372865  83.4827304
 103.4093369 111.3316116  83.6332869 103.5491561 109.8399156  83.4160906
 104.7063733 113.6538622  85.5650058 104.8830361 114.5756586  85.3771042
 105.5020566 113.3397041  85.9944437 112.7931914  96.5427989  91.4398273
 112.4496184  97.4329631  91.3637383 113.1610877  96.3529647  90.5767858
 100.8617765 108.8661520  84.2586875 101.6992987 109.2758528  84.0420583
 101.0396033 107.9260962  84.2287069 112.7582197 106.5336600  79.9470708
 112.2428820 107.3041205  80.1859095 112.4859505 105.8601737  80.5703769
 110.3429308 101.3786301  85.0055946 109.4870904 100.9893152  84.8261585
 110.7556260 101.4578262  84.1455732 111.8728455  98.9132644  89.4047506
 111.3693250  98.8762780  88.5915311 112.1659062  99.8225387  89.4644163
 108.1171341  98.9971374  88.4113688 108.9824337  98.8014183  88.0519577
 108.1848849  98.7681726  89.3383045 112.5468500 104.4063692  81.7730489
 112.2418636 104.7209842  82.6240632 113.4998942 104.4845112  81.8157822
 110.9914932 110.5653916  83.4223443 110.4636294 109.8306675  83.1096681
 110.4902435 111.3428592  83.1763411 105.7233660 101.2273582  85.7830055
 106.2977412 101.0048764  85.0503248 106.3104642 101.2962277  86.5358656
 114.7813237 107.1147309  86.5894431 115.2945119 107.7477301  87.0916141
 115.4314461 106.5148504  86.2237791 106.0503247 103.2578043  79.8025940
 105.2140559 103.5952730  80.1235215 105.9108016 103.1227023  78.8653077
 108.0256327  98.1014831  84.5105124 107.3720740  97.7863848  83.8861739
 107.9836801  97.4790571  85.2364947 109.1367532 108.3834126  76.4258416
 108.2294594 108.1523379  76.6249565 109.6338564 107.5871745  76.6132398
 111.2594068 104.5896764  88.8352772 110.3416629 104.8111711  88.6774460
 111.6754211 104.6643075  87.9764479 112.0429115 105.9888180  83.9655452
 112.7900934 106.5009577  83.6562574 112.3120705 105.6672233  84.8259846
 110.3155766 108.4846721  80.9482406 109.4066985 108.2005754  81.0454876
 110.3450849 108.9045799  80.0885713 114.4907953 103.0245296  85.9474241
 113.7530709 102.5122683  86.2784484 114.7434726 102.5845678  85.1357518
 114.5919580  95.8021548  86.5416011 114.8978457  94.9418912  86.2541926
 115.3172185  96.3939169  86.3415004 100.8843936 106.2052235  84.9297608
 100.6868336 105.6121596  84.2048675 100.3290600 105.9004445  85.6473547
 108.8640660 106.0975341  87.0492202 108.9189269 105.1449178  86.9734678
 108.0531862 106.2534781  87.5333500 110.0131853 110.0255465  78.2870485
 109.5751283 109.3091323  77.8276122 110.7542294 110.2531579  77.7255576
 106.8033020 104.7152401  84.8082580 105.9900885 105.0146572  85.2147773
 107.2992014 104.3208090  85.5257063 106.2947094 102.2870757  90.4243815
 106.9346474 102.1459516  89.7266779 105.4624625 102.0005270  90.0482417
 107.0707398 111.5873187  86.5378808 107.8647997 111.0923507  86.3361383
 106.3599091 111.0591050  86.1746513 103.3790162 105.7316269  82.6138561
 102.4487750 105.6700724  82.8308523 103.4747634 105.2092222  81.8175202
 103.2975711 102.2571082  85.2016802 103.5582528 103.1716415  85.0925963
 104.1192883 101.7895524  85.3513415 104.7700636 103.6708839  92.3715627
 105.4423690 103.4626201  91.7228276 103.9430423 103.4730925  91.9320859
 114.1343081 108.8839846  77.8802542 113.5172252 108.1586674  77.7835595
 113.6659569 109.6449206  77.5369617 105.9241627 103.1025271  77.0023847
 105.0471093 102.9814071  76.6386093 106.3999380 102.3111349  76.7502735
  97.4443767 107.8902430  87.0965354  98.1314807 107.5764160  86.5086369
  97.2891896 108.7943795  86.8232605 102.2478489 102.7792627  91.5250378
 102.1636678 102.1718296  90.7900787 101.4261196 103.2701645  91.5259874
 112.4202203 101.2646190  86.8920573 112.9170903 100.5116153  86.5721643
 111.6489185 101.3010507  86.3263782 113.5031984 110.0217878  84.4658996
 112.5688263 110.1419340  84.2963700 113.6808652 109.1190344  84.2019006
 109.0037172 103.4063573  86.6192257 108.6334959 102.8534614  87.3073163
 109.4996264 102.8021707  86.0667257 116.8904535 105.8635197  85.0009030
 117.3564987 106.6963188  84.9269333 117.3412036 105.3980178  85.7054289
 114.8621198  98.2315784  89.0399931 113.9484278  98.4620011  89.2082138
 115.2914299  98.3154228  89.8913964  97.0211743 105.9703024  89.3682821
  97.0595843 105.4366614  90.1619939  96.5152036 105.4438229  88.7493798
 104.4002506 100.8167564  92.8645363 104.4643832 101.6782395  92.4522761
 104.3369626 100.2041566  92.1317722 100.6520321 104.6967126  82.4436752
 100.9473762 103.7877804  82.3903806  99.7508357 104.6754865  82.1217755
 104.1814568 102.7723122  88.4264301 103.4601154 103.3859090  88.2871774
 104.9707824 103.3080887  88.3480947 102.3808162 102.3781223  82.5676078
 102.0520869 101.4978602  82.3851183 102.7347533 102.3228892  83.4552467
 105.4949986 102.6654193  82.9351555 105.8346058 103.1940114  82.2130164
 105.9422106 103.0034599  83.7110122 108.1893426 101.0491244  92.3854623
 107.8490247 100.2499057  92.7875303 107.4832433 101.3492955  91.8131456
 108.8409898  98.1340556  90.8381946 109.6635967  97.6601035  90.7160837
 109.0847962  98.9131040  91.3380633 107.4818133 101.1628815  81.1344848
 108.2026495 101.5410068  80.6308565 106.8583437 101.8817692  81.2379826
 111.6249256 101.8673964  82.0703180 111.8412870 102.7498602  81.7692008
 111.1443323 101.4760177  81.3408822 106.3648477 104.8259677  88.6473925
 106.2193058 105.1399980  89.5398206 105.8873681 105.4444577  88.0944824
 108.2244860 101.8162225  88.6954814 108.2106429 100.9203318  88.3587112
 108.9417288 101.8232889  89.3293100 110.0770991 102.2499565  90.7407942
 109.8188768 103.1716636  90.7392272 109.5456031 101.8530000  91.4308406
 100.8394139 107.3665021  91.5861586 100.2947607 108.1424829  91.7181860
 101.7173489 107.7135826  91.4280707 107.6281756 100.6976605  83.9642385
 107.7497667  99.7693251  84.1633272 107.3383798 100.7115291  83.0520700
 110.4972946  98.3831516  87.1009104 110.5194643  98.4470849  86.1461084
 110.9141005  97.5436024  87.2949611 102.0716775 114.3800346  86.5102138
 102.8974795 114.0804118  86.1300781 101.7210827 113.6107969  86.9591926
 100.2725380 112.2986673  87.4691071  99.4357288 111.8708847  87.2875072
 100.2449025 112.4919116  88.4061862 106.6011815 112.2830738  82.0558272
 106.7499935 112.9666202  81.4024944 107.4078258 112.2635828  82.5707727
 104.3564448 108.3095916  83.0619341 104.1110490 107.4058246  83.2599551
 104.5260362 108.3113066  82.1198819 112.0461158  99.1819592  92.4444096
 112.5643101  99.9180619  92.1190585 111.6916290  99.4883585  93.2790855
 103.6260095 104.0424273  80.5605502 102.9329340 104.1168628  79.9045538
 103.3811847 103.2784617  81.0827019 112.2973752  95.6019874  87.9644993
 112.5775506  94.9343064  88.5905419 113.0824359  95.7948970  87.4519657
 110.4854019 106.1139681  76.8686072 111.4313123 105.9845889  76.9374490
 110.1068264 105.3754343  77.3455500 116.4575903  97.7795687  86.8312963
 116.2600724  97.4710775  87.7156295 117.0675609  98.5057326  86.9610893
 108.6696936 104.0389658  76.8040957 107.7628391 103.7422770  76.8803670
 108.9472917 103.7419476  75.9375243  99.5874876 105.3596021  87.2540003
  99.2677661 104.5061329  86.9614377  99.0408304 105.5744599  88.0097971
 103.3654784 108.0758462  90.9709510 103.5840794 109.0075570  90.9897544
 103.7780558 107.7166436  91.7564314 110.2859002  98.5826547  82.9585198
 109.4759730  98.2373632  83.3340444 110.9743419  98.2734091  83.5472810
 112.2149550  97.6604594  84.5809495 112.7680589  98.0800047  85.2399518
 112.4519636  96.7340342  84.6232451 107.4395721 100.8976593  76.9452936
 108.3014885 101.2231491  77.2048753 107.6246065 100.1108089  76.4326002
  99.4563136 108.9798932  89.2233125  98.7626608 108.5652885  88.7103079
 100.2036127 109.0219469  88.6266544 115.5928357  99.7705119  84.0888159
 115.0127026 100.4289923  83.7066211 115.3264290  98.9482464  83.6775577
 114.0431923  99.1710177  86.2909479 114.5431702  99.2826711  85.4823798
 114.6867531  98.8671230  86.9310288 101.3699879 108.9117186  87.0999140
 101.3470567 109.0104873  86.1481023 101.6800515 109.7582337  87.4216306
 114.3753235 101.9305210  83.1444507 113.4879090 102.2154860  82.9264702
 114.7907224 101.7698973  82.2971784 117.7267771 101.9551731  86.8598847
 118.5028161 102.4448183  87.1323463 117.0015905 102.3809785  87.3170716
 120.1640330 102.6679350  87.9172787 120.7584821 102.4275086  87.2066095
 120.2366913 101.9486480  88.5446323 114.3494259 107.4459746  83.3594797
 114.2929460 107.9028297  82.5202430 114.9022601 106.6850430  83.1817640
 118.1599065 103.2349477  84.1844917 117.9035999 102.8346113  85.0153125
 117.5351933 103.9493271  84.0595056 115.0829038 108.6364527  80.6547327
 115.0277842 108.4708798  79.7135771 114.4575093 109.3440560  80.8109516
  99.8721553 103.8732591  94.4808749 100.5180417 103.3631545  94.9695974
  99.6638704 104.6101273  95.0552174 108.3925164  98.1372636  80.2332645
 108.3803833  99.0814476  80.3900916 109.2848585  97.9542781  79.9392106
 112.2077283  94.7315412  84.4878582 111.4409679  94.1773899  84.6335264
 112.6187988  94.8037281  85.3492733  44.9900847  -7.6951808  76.0452995
  44.6519359  -7.8110744  75.1573530  45.8590615  -8.0960643  76.0254002
  40.8487663  -5.8416332  72.0349886  40.2852528  -5.9326395  71.2666174
  40.7340058  -6.6616428  72.5152379  45.4720630  -6.5416957  82.0039201
  45.4609271  -6.9364158  81.1319705  45.6341270  -7.2750884  82.5972972
  38.3952095  -4.3465140  74.8734107  39.1873387  -4.6874316  74.4580406
  38.6348745  -4.2370165  75.7936260  46.4287222  -2.1745364  67.3464351
  45.7775201  -1.5891284  66.9598365  47.2231584  -1.6439169  67.4059389
  40.3542849  -5.0856227  67.7451486  41.1273725  -5.6327240  67.6064361
  40.7068248  -4.2211978  67.9565947  42.1927891  -3.7579845  80.9518385
  41.9017757  -2.8534214  80.8365051  42.8284876  -3.7163317  81.6662454
  43.1184098  -6.3802996  77.5419745  43.7147670  -6.6046974  76.8276708
  43.1759070  -7.1218251  78.1445192  42.6909126  -8.9263561  65.3769936
  42.9434647  -9.4482040  64.6153399  41.7533686  -9.0897416  65.4796619
  47.9062487  -4.4854932  67.8833336  47.2708320  -4.4120306  68.5954240
  47.5759893  -3.8961334  67.2052415  42.4105415  -7.0235455  67.5794310
  42.2941673  -7.6990552  68.2475395  42.5207675  -7.5103081  66.7626464
  44.7536956  -7.5625308  71.2841000  44.3895163  -8.0894687  71.9953921
  45.6104072  -7.9526839  71.1107485  47.1517776  -4.0718429  77.9468179
  46.8518499  -3.1693391  77.8383986  46.8068836  -4.3386246  78.7989332
  40.6030258  -7.6204633  73.9804883  39.6780754  -7.7528418  74.1882575
  40.8514671  -6.8410413  74.4774825  37.9639069  -7.9771359  74.8148672
  38.0931450  -7.7236880  75.7288084  37.2836520  -7.3843651  74.4953327
  42.1338556   2.6925891  70.9139146  42.0562586   3.6433716  70.9927627
  41.5300200   2.3471763  71.5714073  42.8802158  -7.3260790  83.1318480
  43.6216843  -6.7875746  82.8553304  42.1739144  -6.6994502  83.2890032
  48.3557498  -5.1831650  81.7290642  48.7640854  -5.6249239  80.9845274
  47.6334759  -5.7579022  81.9824835  48.6786312  -4.6230459  75.4842931
  48.0495175  -4.4584745  74.7818998  48.2911975  -4.2088850  76.2553895
  52.5575544  -3.6876021  72.8387294  51.8726583  -3.3077120  72.2884328
  52.6419394  -3.0780695  73.5719242  49.8126476  -6.0416062  79.4382638
  50.0243371  -5.3984302  78.7617019  49.7656224  -6.8753746  78.9704568
  44.2314274  -4.8856051  72.7493016  44.6952620  -4.6068348  71.9597638
  43.9671072  -5.7872607  72.5666106  41.1238355  -5.3384570  75.6872779
  41.6939712  -4.9097301  75.0490263  41.7146467  -5.6201985  76.3856965
  43.1683160  -8.7632899  69.5582581  43.8707204  -8.3111855  70.0256507
  42.8363789  -9.4049080  70.1862474  41.6163522 -10.1721142  83.9333790
  40.9862182  -9.4904861  84.1669187  41.5099610 -10.2838060  82.9886928
  50.9272304  -3.1644107  77.6104995  51.7489748  -3.5663920  77.3287677
  50.9234707  -3.2675873  78.5621111  44.6928907  -3.6160064  79.7665706
  44.7573340  -3.1539656  80.6023878  43.9839831  -4.2462699  79.8948016
  44.4076925  -1.9491956  69.6344686  44.2722600  -1.1040420  70.0629534
  44.9486738  -1.7472678  68.8710620  37.8606322  -4.4316518  70.2072611
  38.3730843  -3.6373268  70.3578176  38.5129035  -5.1290228  70.1406213
  39.6701207  -1.3150762  72.2895364  39.8467835  -0.3932797  72.1016348
  40.4658041  -1.6292343  72.7189744  46.0345401  -1.3268390  83.7645028
  45.5909256  -2.1132011  83.4465933  46.6962615  -1.1389239  83.0988919
  40.7932523   0.2027412  78.2905707  41.3439948   0.0744475  77.5182701
  39.9543998   0.5022301  77.9400599  48.1326639  -1.0465590  81.7926429
  48.1145115  -0.2256709  81.3006699  49.0546560  -1.1711514  82.0176571
  44.5899694  -3.5321460  82.6349938  45.1228030  -4.2933172  82.4049246
  44.0613775  -3.8247808  83.3774092  52.6953945  -5.6820428  68.6069188
  51.9183388  -6.0209269  68.1624350  53.3745426  -5.6767805  67.9324153
  45.9552406  -4.4035468  70.1468750  45.4273768  -5.1382708  69.8341987
  45.4539909  -3.6260791  69.9008718  50.9345252  -6.2086447  75.2635796
  50.2768927  -5.5187186  75.3515925  51.7385652  -5.8190015  75.6069782
  44.1005006  -6.5855257  63.1503723  43.1932068  -6.8166004  63.3494872
  44.5976038  -7.3817638  63.3377704  47.0073085   2.1242250  66.0700409
  46.3334784   2.4273947  66.6785367  47.3938907   2.9271330  65.7205866
  45.2793240  -6.4842663  67.6727713  44.3704459  -6.7683630  67.7700183
  45.3088324  -6.0643584  66.8131020  50.5112507  -2.8736073  71.4418880
  50.0574834  -3.7145163  71.4984071  49.8806474  -2.2374675  71.7793661
  48.9545447  -1.0359576  72.3768699  49.2468421  -0.4754519  71.6581064
  49.4644067  -0.7431015  73.1321858  44.9769328  -4.9433919  65.0115791
  44.5388758  -5.6598060  64.5521429  45.7179769  -4.7157804  64.4500883
  43.9179072  -0.2579225  73.4662152  43.8755251  -0.0318379  72.5370684
  44.8341771  -0.4915851  73.6147953  53.1211822  -4.6000195  76.0803382
  53.5548329  -4.6924906  76.9286436  53.8343403  -4.6242694  75.4423398
  42.0344873  -3.3816196  73.2624115  42.8285471  -3.8765876  73.0606689
  41.3236565  -3.9098333  72.8991820  46.8539717  -0.9998101  77.6136482
  46.9076739  -0.4307164  78.3814198  45.9854498  -0.8296216  77.2490519
  53.9827372  -4.5576494  78.6136267  54.1763262  -3.6530684  78.8595542
  53.8827990  -5.0169075  79.4474852  49.0442480  -4.4069751  84.1877148
  48.8927987  -4.6359200  83.2707231  49.0347160  -3.4499150  84.2008493
  45.8127817  -6.8337839  79.1723414  46.7419877  -6.6826679  78.9992381
  45.3918847  -6.7453818  78.3172061  44.6116149  -2.8087174  76.9421952
  44.4727234  -3.1768390  77.8147890  43.8230745  -2.2939535  76.7705909
  45.2064301   2.2921922  68.2847488  45.3816056   1.8209965  69.0993111
  44.5197089   2.9187688  68.5128749  46.1621364  -3.4305572  74.3310789
  45.8271196  -3.4704802  75.2268439  45.6625309  -4.0960856  73.8581200
  40.1365608  -8.0237942  79.8563371  39.9985406  -8.7557703  80.4574910
  41.0470531  -8.1129041  79.5747558  49.0980555  -6.0849537  64.6047849
  48.4809726  -6.8102709  64.5080902  48.6297044  -5.3240177  64.2614923
  42.7647908  -8.3117982  79.3447050  43.4747527  -8.9524790  79.3033669
  42.7217216  -8.0605087  80.2673231  50.7534687  -1.3750629  82.2653629
  50.6947233  -2.0591409  81.5984212  51.1554205  -0.6331639  81.8134255
  39.7725386   5.4411285  75.0587348  40.0121984   6.0729809  75.7366367
  38.9294582   5.0899325  75.3452708  50.7552094  -3.4111045  80.4967609
  49.8678873  -3.7485123  80.6194008  51.3250645  -4.1428014  80.7336374
  44.2853248   1.2490407  77.4628852  44.2123419   2.0545379  77.9748157
  43.8430641   1.4482373  76.6376874  44.0743027   0.4862177  70.9731674
  43.2910549   1.0283858  71.0669898  44.7735772   1.0036157  71.3725915
  46.7451931   1.1477241  79.6187011  47.4579903   1.7824706  79.5462912
  46.2541960   1.2441107  78.8027013  48.4669458  -4.9471506  71.1904303
  47.5325737  -4.8270043  71.0209007  48.6446127  -5.8499039  70.9264312
  41.7963845  -1.1028315  80.4392582  42.4973304  -0.4691832  80.5921976
  41.3258960  -0.7613584  79.6788221  49.9218241  -2.7610365  68.7240489
  50.1978084  -2.8753771  69.6334363  49.0522739  -3.1592880  68.6852662
  46.5572305   1.4875986  72.3673302  46.7394699   0.6697641  72.8301055
  47.3805291   1.7043678  71.9298192  46.8914470   0.4144171  69.6288351
  47.4202236  -0.0963375  69.0158513  47.1542690   0.0986701  70.4933884
  45.6452704  -7.8063897  84.7511169  44.9693341  -7.9069767  85.4213544
  46.4680338  -7.9624683  85.2147166  37.3931563  -1.5691960  77.3723684
  37.9785000  -2.3148272  77.5051589  37.1956401  -1.2588003  78.2560348
  40.2470218   1.4659287  72.3886127  39.5780593   1.9505415  71.9050167
  40.1083088   1.7128508  73.3029505  44.3875487   3.5003031  78.9868785
  44.9393795   3.6634652  79.7517870  44.7281680   4.0907469  78.3148810
  49.2386361  -1.6735712  84.8417440  49.7826265  -1.0605753  84.3472394
  48.6573206  -1.1156133  85.3584453  47.5243874   1.4485006  75.9732467
  47.3995013   0.6474746  75.4643413  48.1822965   1.9431200  75.4846437
  49.5878782  -0.7505974  77.6012017  48.6409118  -0.8700622  77.5290344
  49.9361555  -1.6383476  77.6838279  46.5925216  -0.9553257  73.8016370
  46.4450178  -1.8836550  73.9823940  47.4178709  -0.9333167  73.3173445
  50.1959337  -0.1324699  74.8881242  51.1205885  -0.3381837  74.7505694
  50.0274641  -0.3808297  75.7970584  41.3285951 -10.1429706  75.3719232
  41.1830532  -9.8289403  76.2643513  40.8511155  -9.5244806  74.8190130
  49.9854654   0.3860969  70.2443334  50.1591531  -0.1792609  69.4917186
  50.4783545   1.1861864  70.0622824  50.9729826  -0.2972267  67.3440232
  51.6680731   0.3234426  67.5627547  51.3152976  -1.1476916  67.6192610
  52.8721249  -2.8472561  68.8727563  53.3972573  -2.5085288  68.1476883
  52.7843602  -3.7825546  68.6890698  44.5341298   1.0661512  81.0017440
  44.8428424   0.8210659  81.8740139  45.3316780   1.2708151  80.5136310
  44.5561910   3.2199422  73.2322816  44.1166900   2.7275801  73.9255673
  45.3070027   2.6772390  72.9914891  37.0354249  -0.5889037  73.2347444
  37.8612269  -0.8885265  72.8546088  36.6848301  -1.3581415  73.6837233
  42.0035782  -1.2362569  75.3045118  41.3815791  -1.8991864  75.0047346
  42.6740649  -1.2101437  74.6218766  35.2362854  -2.6702711  74.1936378
  34.3994762  -3.0980536  74.0120379  35.2086499  -2.4770267  75.1307169
  52.5615155  -2.2139658  84.1778761  51.7710699  -2.2315519  83.6383260
  52.3248510  -1.6751364  84.9327797  52.6813030  -5.3647191  81.4911489
  52.7311035  -5.5297184  82.4327012  52.5726954  -6.2319932  81.1009370
  41.5649289  -2.6858646  68.7803578  41.7137409  -2.0023181  68.1270251
  42.3715732  -2.7053555  69.2953034  54.1831227  -2.9450250  81.7353511
  53.8916035  -2.5820269  82.5716972  53.5703358  -3.6583241  81.5566843
  39.3201922  -6.6593468  69.7864647  39.0747964  -7.5631138  69.9844857
  39.4897837  -6.6576317  68.8444125  45.0644695  -0.1910515  66.2515326
  44.4918662   0.4279672  65.7985798  45.6377488   0.3588847  66.7855248
  48.2841954   0.0926635  67.3823908  49.2172627   0.0272197  67.5856784
  48.1965167   0.9282902  66.9238441  50.9129971  -0.5907495  64.3427856
  50.8343603  -0.9247631  65.2363614  51.7339638  -0.0985727  64.3419328
  45.3330186  -4.8031956  85.0532035  46.2533195  -4.6253357  85.2472082
  45.2979769  -5.7475911  84.9011735  38.3292258  -6.8930922  77.6954816
  38.5478268  -5.9613814  77.7142850  38.7418032  -7.2522947  78.4809620
  43.0651394  -7.8900577  85.9022627  42.5818475  -7.0900217  86.1086516
  43.1512333  -7.8792632  84.9490071  36.3337353  -6.0572197  73.8244446
  36.3108041  -5.9584510  72.8726329  36.6437990  -5.2107046  74.1461612
  38.9924731  -3.9996042  77.9391061  39.9467985  -4.0312100  77.8720992
  38.7937255  -4.4605418  78.7541287  39.5824113  -5.4294926  80.5061858
  40.4017002  -4.9350848  80.5296696  39.8560921  -6.3462958  80.4779426
  37.3474960   1.5423577  74.9561259  37.2129428   0.7823978  74.3899257
  36.9307022   2.2664477  74.4890048  48.4833923  -3.2739499  63.9637834
  49.1869773  -3.0689497  64.5795490  47.7596572  -2.7062737  64.2286917
  40.5044086   2.4392894  75.1679701  40.3876470   3.3838327  75.0658392
  39.6836532   2.1366456  75.5565500  50.3920620  -2.8356970  66.0136294
  51.2266224  -3.2675772  65.8313769  50.2304963  -3.0074956  66.9413188
  50.0466512  -6.3324857  67.3792633  49.9915316  -6.4980585  66.4381077
  49.4212568  -5.6248824  67.5354823  47.3612420  -4.0275945  86.7046196
  48.2303579  -3.8535293  86.3432831  46.8819171  -3.2081528  86.5821925
  41.5298600   3.0921156  78.3835630  42.4325846   3.1244766  78.7002125
  41.3035970   2.1621607  78.3981965  43.2852202   1.8452143  75.0445708
  42.3347833   1.8454004  74.9310081  43.5884688   1.0984877  74.5281743
  59.0204895   7.6812681  76.1091471  59.6583305   7.5619428  75.4054811
  58.9025738   8.6293525  76.1679423  55.8294602   7.6340109  76.0452995
  55.4913113   7.5181174  75.1573530  56.6984370   7.2331274  76.0254002
  51.6881417   9.4875586  72.0349886  51.1246282   9.3965523  71.2666174
  51.5733812   8.6675490  72.5152379  56.3114385   8.7874961  82.0039201
  56.3003025   8.3927759  81.1319705  56.4735024   8.0541034  82.5972972
  49.2345849  10.9826777  74.8734107  50.0267141  10.6417602  74.4580406
  49.4742499  11.0921752  75.7936260  57.2680976  13.1546553  67.3464351
  56.6168956  13.7400634  66.9598365  58.0625339  13.6852748  67.4059389
  51.1936603  10.2435690  67.7451486  51.9667479   9.6964678  67.6064361
  51.5462002  11.1079940  67.9565947  53.0321646  11.5712073  80.9518385
  52.7411512  12.4757704  80.8365051  53.6678630  11.6128600  81.6662454
  53.9577853   8.9488921  77.5419745  54.5541425   8.7244944  76.8276708
  54.0152824   8.2073667  78.1445192  53.5302881   6.4028357  65.3769936
  53.7828402   5.8809878  64.6153399  52.5927440   6.2394502  65.4796619
  58.5746164   5.4064135  73.1844679  59.3609253   4.9883558  72.8335096
  58.8384868   6.3110227  73.3526327  58.7456241  10.8436985  67.8833336
  58.1102074  10.9171612  68.5954240  58.4153648  11.4330584  67.2052415
  63.9754591   5.3439368  74.0877657  64.7079763   4.7738585  74.3215487
  63.2193947   4.9560969  74.5284163  53.2499170   8.3056463  67.5794310
  53.1335428   7.6301366  68.2475395  53.3601430   7.8188836  66.7626464
  55.5930711   7.7666610  71.2841000  55.2288918   7.2397231  71.9953921
  56.4497827   7.3765079  71.1107485  61.4980011  -0.9439058  78.5472266
  61.1663336  -0.0743647  78.3233481  60.9025625  -1.2602774  79.2266296
  55.2336198   2.7956509  66.2802348  55.4010600   3.6636746  66.6472819
  55.0433367   2.9583791  65.3563638  57.9911531  11.2573488  77.9468179
  57.6912254  12.1598527  77.8383986  57.6462590  10.9905671  78.7989332
  51.4424012   7.7087285  73.9804883  50.5174509   7.5763499  74.1882575
  51.6908425   8.4881504  74.4774825  61.3908675   3.7756028  75.6265616
  60.4825552   3.7071437  75.3324377  61.3396270   4.2527973  76.4547441
  55.2125418   5.2514167  67.2649015  55.0925044   5.6971218  68.1034495
  54.5178007   5.5999485  66.7062553  48.8032823   7.3520559  74.8148672
  48.9325204   7.6055038  75.7288084  48.1230275   7.9448267  74.4953327
  52.9732311  18.0217809  70.9139146  52.8956340  18.9725634  70.9927627
  52.3693954  17.6763681  71.5714073  55.4649540   5.1945674  83.5700513
  54.6882874   5.7539594  83.5603378  56.1040103   5.6802457  84.0915383
  63.2570321   1.9772467  77.4043490  62.6144701   2.2705000  76.7583284
  62.7525249   1.8625387  78.2096687  60.9110485   5.7235640  68.0929349
  61.8228341   5.9563027  67.9177047  60.4020132   6.3072684  67.5304428
  53.7195913   8.0031127  83.1318480  54.4610597   8.5416171  82.8553304
  53.0132898   8.6297416  83.2890032  59.1951252  10.1460268  81.7290642
  59.6034608   9.7042678  80.9845274  58.4728514   9.5712895  81.9824835
  55.5482322   5.0832875  79.1024199  56.3943518   5.5072288  79.2458848
  55.4880960   4.4266499  79.7962762  59.5180067  10.7061458  75.4842931
  58.8888929  10.8707173  74.7818998  59.1305729  11.1203068  76.2553895
  63.3969299  11.6415896  72.8387294  62.7120337  12.0214798  72.2884328
  63.4813148  12.2511223  73.5719242  58.6981768   2.7437243  80.7605372
  58.4542700   3.4979304  80.2239648  58.9741698   3.1222591  81.5952619
  60.6520230   9.2875855  79.4382638  60.8637126   9.9307615  78.7617019
  60.6049979   8.4538172  78.9704568  58.2546459   1.8993676  76.3419210
  57.3930938   2.1974930  76.6335948  58.2808894   2.1164075  75.4100243
  55.0708029  10.4435867  72.7493016  55.5346374  10.7223570  71.9597638
  54.8064827   9.5419311  72.5666106  51.9632110   9.9907348  75.6872779
  52.5333467  10.4194616  75.0490263  52.5540222   9.7089933  76.3856965
  54.0076915   6.5659019  69.5582581  54.7100958   7.0180063  70.0256507
  53.6757543   5.9242838  70.1862474  52.4557276   5.1570776  83.9333790
  51.8255937   5.8387056  84.1669187  52.3493364   5.0453857  82.9886928
  47.7502249   4.8242572  74.8599714  46.9601303   5.0800100  74.3839825
  48.2413496   5.6390909  74.9651755  61.7666058  12.1647811  77.6104995
  62.5883502  11.7627998  77.3287677  61.7628461  12.0616045  78.5621111
  49.7016994   5.1887151  71.8183191  48.9048157   5.3005845  72.3366687
  49.4742586   5.5273803  70.9524082  55.5322662  11.7131854  79.7665706
  55.5967094  12.1752261  80.6023878  54.8233586  11.0829219  79.8948016
  46.0339952   5.0773062  77.2914705  46.2847990   5.9620072  77.5572281
  46.5699500   4.8977664  76.5189797  69.8572051   8.5086559  73.9589967
  69.1035760   7.9393957  73.8033971  69.9919593   8.4749224  74.9060601
  55.2470679  13.3799962  69.6344686  55.1116354  14.2251497  70.0629534
  55.7880492  13.5819239  68.8710620  51.7338019  -0.5408459  86.2959041
  51.3404965  -1.0942260  86.9706685  52.5504159  -0.2297880  86.6865559
  48.7000077  10.8975400  70.2072611  49.2124597  11.6918650  70.3578176
  49.3522790  10.2001690  70.1406213  50.5094962  14.0141156  72.2895364
  50.6861590  14.9359121  72.1016348  51.3051795  13.6999575  72.7189744
  54.6505980   0.8749421  83.8879298  55.3915693   1.4756574  83.8083760
  54.8823903   0.1327058  83.3297340  49.7947318   6.0605788  82.1657528
  49.6800833   5.1591045  82.4664626  48.9391836   6.3069485  81.8142344
  56.8739156  14.0023528  83.7645028  56.4303010  13.2159907  83.4465933
  57.5356369  14.1902679  83.0988919  51.6326277  15.5319330  78.2905707
  52.1833702  15.4036393  77.5182701  50.7937753  15.8314219  77.9400599
  58.9720394  14.2826328  81.7926429  58.9538869  15.1035209  81.3006699
  59.8940314  14.1580403  82.0176571  55.4293448  11.7970457  82.6349938
  55.9621785  11.0358746  82.4049246  54.9007529  11.5044109  83.3774092
  58.5963143  -3.0969477  78.1643580  58.2527412  -2.2067835  78.0882690
  58.9642106  -3.2867819  77.3013165  46.6648994   9.2264054  70.9832182
  47.5024216   9.6361062  70.7665889  46.8427261   8.2863496  70.9532376
  58.5613426   6.8939135  66.6716015  58.0460049   7.6643739  66.9104402
  58.2890734   6.2204271  67.2949076  56.1460537   1.7388835  71.7301253
  55.2902133   1.3495686  71.5506892  56.5587489   1.8180796  70.8701039
  57.6759683  -0.7264821  76.1292813  57.1724479  -0.7634686  75.3160618
  57.9690290   0.1827921  76.1889469  53.9202569  -0.6426092  75.1358994
  54.7855566  -0.8383283  74.7764884  53.9880078  -0.8715740  76.0628351
  63.5347700   9.6471489  68.6069188  62.7577143   9.3082649  68.1624350
  64.2139181   9.6524112  67.9324153  58.3499729   4.7666227  68.4975796
  58.0449865   5.0812376  69.3485939  59.3030171   4.8447647  68.5403129
  56.7946161  10.9256450  70.1468750  56.2667522  10.1909210  69.8341987
  56.2933664  11.7031126  69.9008718  61.7739007   9.1205470  75.2635796
  61.1162681   9.8104732  75.3515925  62.5779406   9.5101902  75.6069782
  51.5264888   1.5876116  72.5075361  52.1008640   1.3651298  71.7748554
  52.1135871   1.6564811  73.2603963  60.5844466   7.4749843  73.3139738
  61.0976347   8.1079835  73.8161448  61.2345690   6.8751039  72.9483098
  51.8534476   3.6180577  66.5271247  51.0171788   3.9555264  66.8480521
  51.7139245   3.4829557  65.5898384  53.8287556  -1.5382635  71.2350431
  53.1751968  -1.8533618  70.6107046  53.7868030  -2.1606894  71.9610254
  54.9398761   8.7436660  63.1503723  54.0325823   8.5125914  63.3494872
  55.4369793   7.9474279  63.3377704  57.8466840  17.4534167  66.0700409
  57.1728539  17.7565864  66.6785367  58.2332662  18.2563248  65.7205866
  57.0625296   4.9499299  75.5598078  56.1447858   5.1714246  75.4019766
  57.4785440   5.0245609  74.7009786  57.8460344   6.3490714  70.6900759
  58.5932163   6.8612112  70.3807881  58.1151934   6.0274767  71.5505152
  56.1186994   8.8449255  67.6727713  55.2098214   8.5608288  67.7700183
  56.1482078   9.2648334  66.8131020  61.3506262  12.4555845  71.4418880
  60.8968589  11.6146754  71.4984071  60.7200229  13.0917243  71.7793661
  60.2939181   3.3847831  72.6719548  59.5561938   2.8725217  73.0029790
  60.5465955   2.9448212  71.8602825  59.7939201  14.2932341  72.3768699
  60.0862175  14.8537398  71.6581064  60.3037822  14.5860902  73.1321858
  46.6875165   6.5654769  71.6542915  46.4899565   5.9724130  70.9293982
  46.1321829   6.2606979  72.3718854  54.6671888   6.4577876  73.7737508
  54.7220498   5.5051712  73.6979985  53.8563090   6.6137315  74.2578807
  55.8163082  10.3857999  65.0115791  55.3782512   9.6693858  64.5521429
  56.5573523  10.6134114  64.4500883  52.6064248   5.0754935  71.5327887
  51.7932114   5.3749106  71.9393079  53.1023243   4.6810624  72.2502369
  54.7572826  15.0712692  73.4662152  54.7149005  15.2973539  72.5370684
  55.6735525  14.8376067  73.6147953  58.2038460   5.5396760  80.3642781
  58.5587848   5.7668233  81.2237247  58.8510591   5.8715137  79.7420036
  63.9336197   8.6615196  71.0692110  63.7954096   8.8516792  70.1413299
  63.5772416   9.4234579  71.5260161  52.0978323   2.6473291  77.1489122
  52.7377702   2.5062050  76.4512085  51.2655854   2.3607804  76.7727724
  63.9605577  10.7291723  76.0803382  64.3942083  10.6367012  76.9286436
  64.6737157  10.7049223  75.4423398  52.8738627  11.9475721  73.2624115
  53.6679226  11.4526042  73.0606689  52.1630319  11.4193585  72.8991820
  57.6933472  14.3293817  77.6136482  57.7470494  14.8984753  78.3814198
  56.8248253  14.4995702  77.2490519  49.1821391   6.0918803  69.3383867
  48.2518979   6.0303259  69.5553829  49.2778863   5.5694756  68.5420508
  49.1006940   2.6173616  71.9262109  49.3613757   3.5318949  71.8171269
  49.9224112   2.1498059  72.0758722  50.5731865   4.0311373  79.0960933
  51.2454918   3.8228735  78.4473582  49.7461651   3.8333459  78.6566166
  64.8221126  10.7715423  78.6136267  65.0157016  11.6761234  78.8595542
  64.7221744  10.3122843  79.4474852  56.4757437   0.6573314  81.1126594
  55.8285352   1.3563264  81.0191071  57.2458452   1.0909458  81.4802842
  59.8836235  10.9222166  84.1877148  59.7321741  10.6932718  83.2707231
  59.8740914  11.8792768  84.2008493  56.6521571   8.4954079  79.1723414
  57.5813631   8.6465239  78.9992381  56.2312601   8.5838100  78.3172061
  55.4509903  12.5204743  76.9421952  55.3120989  12.1523528  77.8147890
  54.6624499  13.0352383  76.7705909  56.0458055  17.6213840  68.2847488
  56.2209811  17.1501883  69.0993111  55.3590843  18.2479606  68.5128749
  57.0015118  11.8986346  74.3310789  56.6664951  11.8587116  75.2268439
  56.5019064  11.2331062  73.8581200  50.9759362   7.3053976  79.8563371
  50.8379160   6.5734215  80.4574910  51.8864286   7.2162876  79.5747558
  59.9374310   9.2442380  64.6047849  59.3203480   8.5189209  64.5080902
  59.4690798  10.0051741  64.2614923  53.6041663   7.0173935  79.3447050
  54.3141281   6.3767128  79.3033669  53.5610971   7.2686830  80.2673231
  61.5928441  13.9541289  82.2653629  61.5340988  13.2700509  81.5984212
  61.9947960  14.6960279  81.8134255  52.3170597   4.0039153  81.1642690
  51.7807954   3.5529892  81.8164286  51.7287305   4.1385062  80.4213154
  50.6119140  20.7703203  75.0587348  50.8515739  21.4021727  75.7366367
  49.7688337  20.4191243  75.3452708  51.7272856   3.4627805  63.7269153
  50.8502322   3.3416606  63.3631400  52.2030609   2.6713883  63.4748042
  61.5945849  11.9180873  80.4967609  60.7072628  11.5806794  80.6194008
  62.1644400  11.1863904  80.7336374  43.2474996   8.2504964  73.8210660
  43.9346036   7.9366694  73.2331676  43.0923125   9.1546329  73.5477912
  48.0509718   3.1395161  78.2495684  47.9667907   2.5320831  77.5146094
  47.2292424   3.6304179  78.2505181  55.1247002  16.5782325  77.4628852
  55.0517174  17.3837297  77.9748157  54.6824395  16.7774291  76.6376874
  54.9136782  15.8154095  70.9731674  54.1304304  16.3575775  71.0669898
  55.6129527  16.3328075  71.3725915  58.2233432   1.6248725  73.6165879
  58.7202131   0.8718687  73.2966949  57.4520413   1.6613041  73.0509089
  66.0763189   7.3289090  75.2584171  66.0653066   8.2113806  74.8878104
  65.2080569   6.9760641  75.0638708  57.5845686  16.4769159  79.6187011
  58.2973658  17.1116624  79.5462912  57.0935714  16.5733025  78.8027013
  59.3063213  10.3820412  71.1904303  58.3719491  10.5021874  71.0209007
  59.4839881   9.4792879  70.9264312  54.8068401   3.7666108  73.3437564
  54.4366188   3.2137148  74.0318469  55.3027493   3.1624241  72.7912564
  62.6935764   6.2237731  71.7254337  63.1596216   7.0565723  71.6514639
  63.1443264   5.7582713  72.4299595  52.6357599  14.2263603  80.4392582
  53.3367059  14.8600086  80.5921976  52.1652714  14.5678334  79.6788221
  60.7611995  12.5681552  68.7240489  61.0371839  12.4538147  69.6334363
  59.8916494  12.1699037  68.6852662  60.6652427  -1.4081682  75.7645238
  59.7515506  -1.1777455  75.9327445  61.0945528  -1.3243238  76.6159270
  60.4358885   6.7808210  78.2645132  59.7830335   7.0284117  77.6097585
  60.8139265   5.9672348  77.9307609  57.3966059  16.8167903  72.3673302
  57.5788454  15.9989559  72.8301055  58.2199045  17.0335595  71.9298192
  57.7308225  15.7436088  69.6288351  58.2595991  15.2328543  69.0158513
  57.9936444  15.4278619  70.4933884  56.4846458   7.5228021  84.7511169
  55.8087095   7.4222150  85.4213544  57.3074092   7.3667235  85.2147166
  48.2325317  13.7599958  77.3723684  48.8178754  13.0143646  77.5051589
  48.0350156  14.0703914  78.2560348  51.0863972  16.7951205  72.3886127
  50.4174348  17.2797333  71.9050167  50.9476842  17.0420425  73.3029505
  42.8242972   6.3305558  76.0928128  42.8627072   5.7969149  76.8865246
  42.3183265   5.8040763  75.4739105  55.2269241  18.8294949  78.9868785
  55.7787549  18.9926570  79.7517870  55.5675435  19.4199386  78.3148810
  50.2033734   1.1770098  79.5890670  50.2675061   2.0384929  79.1768068
  50.1400855   0.5644100  78.8563028  49.6786007   3.2493231  83.2363704
  50.3058046   2.8670308  83.8501228  48.8213926   3.0307433  83.6019397
  60.0780115  13.6556206  84.8417440  60.6220019  14.2686164  84.3472394
  59.4966960  14.2135784  85.3584453  46.4551550   5.0569660  69.1682059
  46.7504991   4.1480338  69.1149113  45.5539585   5.0357399  68.8463061
  58.3637628  16.7776924  75.9732467  58.2388768  15.9766664  75.4643413
  59.0216719  17.2723117  75.4846437  49.9845797   3.1325657  75.1509608
  49.2632382   3.7461624  75.0117081  50.7739052   3.6683421  75.0726254
  60.4272537  14.5785944  77.6012017  59.4802872  14.4591295  77.5290344
  60.7755310  13.6908442  77.6838279  52.7872110   0.4680083  81.4250259
  53.3106512   0.7142380  82.1876569  52.5684443   1.3000118  81.0053397
  48.1839391   2.7383758  69.2921384  47.8552097   1.8581137  69.1096490
  48.5378762   2.6831426  70.1797773  57.4318970  14.3738660  73.8016370
  57.2843932  13.4455368  73.9823940  58.2572464  14.3958751  73.3173445
  51.2981214   3.0256727  69.6596862  51.6377287   3.5542649  68.9375470
  51.7453335   3.3637134  70.4355428  61.0353092  15.1967219  74.8881242
  61.9599639  14.9910080  74.7505694  60.8668395  14.9483620  75.7970584
  53.9924655   1.4093778  79.1099930  53.6521476   0.6101591  79.5120610
  53.2863661   1.7095489  78.5376763  54.6441127  -1.5056909  77.5627253
  55.4667196  -1.9796431  77.4406143  54.8879191  -0.7266426  78.0625939
  53.2849361   1.5231349  67.8590155  54.0057724   1.9012602  67.3553871
  52.6614666   2.2420226  67.9625133  57.4280484   2.2276498  68.7948487
  57.6444099   3.1101136  68.4937315  56.9474552   1.8362711  68.0654129
  52.1679706   5.1862211  75.3719232  52.0224286   5.5002514  76.2643513
  51.6904909   5.8047112  74.8190130  54.0276089   2.1764759  75.4200121
  54.0137657   1.2805853  75.0832419  54.7448517   2.1835423  76.0538407
  55.8802219   2.6102099  77.4653249  55.6219997   3.5319170  77.4637579
  55.3487260   2.2132534  78.1553713  60.8248408  15.7152887  70.2443334
  60.9985286  15.1499309  69.4917186  61.3177299  16.5153781  70.0622824
  46.6425368   7.7267556  78.3106893  46.0978836   8.5027364  78.4427167
  47.5204718   8.0738360  78.1526014  53.4312985   1.0579139  70.6887691
  53.5528896   0.1295786  70.8878579  53.1415027   1.0717825  69.7766007
  56.3004175  -1.2565950  73.8254411  56.3225872  -1.1926617  72.8706391
  56.7172234  -2.0961441  74.0194917  66.6787799   8.4789309  71.8633634
  67.1218945   7.7296635  71.4652757  65.8014310   8.4699446  71.4807366
  61.8123581  15.0319651  67.3440232  62.5074485  15.6526344  67.5627547
  62.1546731  14.1815002  67.6192610  47.4291390   6.8537452  81.2037050
  46.6873126   7.0020087  81.7901680  47.1084134   7.1145717  80.3403799
  63.7115004  12.4819356  68.8727563  64.2366328  12.8206629  68.1476883
  63.6237356  11.5466372  68.6890698  55.3735052  16.3953430  81.0017440
  55.6822179  16.1502577  81.8740139  56.1710534  16.6000069  80.5136310
  55.3955664  18.5491340  73.2322816  54.9560655  18.0567718  73.9255673
  56.1463781  18.0064307  72.9914891  47.8748003  14.7402881  73.2347444
  48.7006023  14.4406652  72.8546088  47.5242055  13.9710503  73.6837233
  52.8429537  14.0929349  75.3045118  52.2209546  13.4300054  75.0047346
  53.5134404  14.1190481  74.6218766  46.0756608  12.6589207  74.1936378
  45.2388517  12.2311381  74.0120379  46.0480254  12.8521650  75.1307169
  52.9154064   2.5711137  84.8977624  52.9642220   3.4473260  84.5155393
  53.4576578   2.0288530  84.3249267  63.4008910  13.1152260  84.1778761
  62.6104453  13.0976399  83.6383260  63.1642264  13.6540554  84.9327797
  63.5206785   9.9644726  81.4911489  63.5704790   9.7994734  82.4327012
  63.4120708   9.0971985  81.1009370  52.4043044  12.6433272  68.7803578
  52.5531164  13.3268737  68.1270251  53.2109487  12.6238362  69.2953034
  60.8110547   5.9475654  82.8070796  61.7120410   5.8082119  82.5154794
  60.8858522   6.1130109  83.7468974  55.1453353   3.3242509  81.6523982
  54.2756662   3.6176075  81.3806571  55.3812833   3.9082954  82.3731246
  65.0224982  12.3841668  81.7353511  64.7309790  12.7471649  82.5716972
  64.4097113  11.6708676  81.5566843  66.2220664   9.9494548  74.2556081
  67.0567555  10.3884352  74.4193642  66.3579793   9.4733201  73.4364327
  63.2712170   7.5074283  80.2033569  63.7466291   7.7001929  79.3952420
  62.3477735   7.5633468  79.9576953  50.1595676   8.6698450  69.7864647
  49.9141718   7.7660780  69.9844857  50.3291591   8.6715600  68.8444125
  57.8492386  -0.4577874  79.1689403  58.3674330   0.2783153  78.8435891
  57.4947519  -0.1513881  80.0036162  49.4291324   4.4026807  67.2850809
  48.7360569   4.4771162  66.6290845  49.1843076   3.6387151  67.8072326
  55.9038449  15.1381403  66.2515326  55.3312416  15.7571590  65.7985798
  56.4771243  15.6880764  66.7855248  61.9713839   4.3840043  78.4361875
  62.9231262   4.4838140  78.4574099  61.8017289   3.5918311  78.9459959
  59.9928218   1.4695626  78.6221275  59.3978150   1.7500639  77.9267764
  59.7077915   1.9589527  79.3938017  59.1235709  15.4218553  67.3823908
  60.0566382  15.3564114  67.5856784  59.0358922  16.2574820  66.9238441
  61.7523725  14.7384423  64.3427856  61.6737357  14.4044287  65.2363614
  62.5733392  15.2306191  64.3419328  64.4501917   7.6046162  77.5504174
  64.4178237   6.6662163  77.7363858  65.0602540   7.6830199  76.8169999
  56.2885248   6.4742215  63.5931378  57.2344352   6.3448423  63.6619796
  55.9099492   5.7356877  64.0700806  64.5996405   4.3957206  77.5962457
  64.0835454   3.6115662  77.4092386  65.4836354   4.0675922  77.7608977
  62.2607132  -1.8601779  73.5558270  62.0631953  -2.1686690  74.4401602
  62.8706838  -1.1340140  73.6856200  70.2678467   8.6662169  76.6910211
  70.9981855   8.4047457  77.2517914  69.6585412   7.9290891  76.7312279
  68.3493764   6.8070032  77.2884662  67.6226927   6.6725997  76.6801154
  67.9341051   7.1146860  78.0941380  56.1723940  10.5259961  85.0532035
  57.0926950  10.7038560  85.2472082  56.1373523   9.5816007  84.9011735
  54.4728165   4.3992192  63.5286263  53.5659620   4.1025304  63.6048977
  54.7504146   4.1022010  62.6620550  45.3906105   5.7198555  73.9785310
  45.0708889   4.8663863  73.6859684  44.8439533   5.9347133  74.7343277
  49.1686013   8.4360996  77.6954816  49.3872022   9.3678104  77.7142850
  49.5811786   8.0768971  78.4809620  56.0890230  -1.0570919  69.6830505
  55.2790959  -1.4023834  70.0585751  56.7774647  -1.3663375  70.2718116
  58.0180779  -1.9792872  71.3054801  58.5711817  -1.5597418  71.9644825
  58.2550865  -2.9057124  71.3477757  54.0413878   4.0094202  87.0857565
  53.9410605   4.9588559  87.0169656  53.8235420   3.6812441  86.2133635
  53.2426949   1.2579127  63.6698243  54.1046113   1.5834025  63.9294060
  53.4277293   0.4710623  63.1571308  45.2594365   9.3401467  75.9478431
  44.5657837   8.9255419  75.4348386  46.0067356   9.3822003  75.3511850
  61.3959586   0.1307653  70.8133466  60.8158255   0.7892457  70.4311518
  61.1295518  -0.6915002  70.4020883  59.8463152  -0.4687289  73.0154786
  60.3462931  -0.3570754  72.2069105  60.4898760  -0.7726236  73.6555594
  53.9045148   7.4391341  85.9022627  53.4212230   8.2391701  86.1086516
  53.9906087   7.4499286  84.9490071  47.1731108   9.2719720  73.8244446
  47.1501796   9.3707408  72.8726329  47.4831744  10.1184871  74.1461612
  49.8318485  11.3295875  77.9391061  50.7861739  11.2979818  77.8720992
  49.6331009  10.8686499  78.7541287  50.4217868   9.8996991  80.5061858
  51.2410757  10.3941070  80.5296696  50.6954675   8.9828960  80.4779426
  60.1784464   2.2907744  69.8689814  59.2910319   2.5757394  69.6510009
  60.5938453   2.1301507  69.0217091  63.5299000   2.3154265  73.5844153
  64.3059390   2.8050717  73.8568770  62.8047134   2.7412319  74.0416023
  65.9671559   3.0281884  74.6418094  66.5616049   2.7877620  73.9311402
  66.0398142   2.3089015  75.2691630  48.1868714  16.8715495  74.9561259
  48.0523182  16.1115896  74.3899257  47.7700777  17.5956395  74.4890048
  59.3227677  12.0552418  63.9637834  60.0263527  12.2602421  64.5795490
  58.5990326  12.6229180  64.2286917  60.1525488   7.8062280  70.0840104
  60.0960689   8.2630831  69.2447737  60.7053830   7.0452964  69.9062947
  63.9630293   3.5952012  70.9090224  63.7067228   3.1948647  71.7398431
  63.3383162   4.3095806  70.7840363  68.2742631   6.3348085  73.4161515
  67.7142189   6.4041274  74.1893077  67.6686135   6.1589069  72.6961011
  51.3437840  17.7684812  75.1679701  51.2270224  18.7130244  75.0658392
  50.5230286  17.4658374  75.5565500  61.2314375  12.4934948  66.0136294
  62.0659979  12.0616146  65.8313769  61.0698718  12.3216961  66.9413188
  60.8860267   8.9967061  67.3792633  60.8309071   8.8311332  66.4381077
  60.2606322   9.7043094  67.5354823  45.6752782   4.2335125  81.2054055
  46.3211645   3.7234079  81.6941281  45.4669933   4.9703807  81.7797481
  58.2006174  11.3015973  86.7046196  59.0697334  11.4756625  86.3432831
  57.7212926  12.1210390  86.5821925  54.1956392  -1.5024830  66.9577952
  54.1835062  -0.5582990  67.1146223  55.0879814  -1.6854685  66.6637413
  52.3692354  18.4213074  78.3835630  53.2719601  18.4536684  78.7002125
  52.1429724  17.4913525  78.3981965  54.1245956  17.1744060  75.0445708
  53.1741587  17.1745922  74.9310081  54.4278442  16.4276795  74.5281743
  50.0150273   1.3802742  85.3029070  50.8781734   1.0239547  85.5132394
  49.4415684   1.0416637  85.9904474  69.8598650  23.0104599  76.1091471
  70.4977060  22.8911346  75.4054811  69.7419493  23.9585443  76.1679423
  66.6688356  22.9632027  76.0452995  66.3306868  22.8473092  75.1573530
  67.5378124  22.5623192  76.0254002  62.5275172  24.8167503  72.0349886
  61.9640037  24.7257440  71.2666174  62.4127567  23.9967408  72.5152379
  67.1508139  24.1166879  82.0039201  67.1396780  23.7219677  81.1319705
  67.3128779  23.3832951  82.5972972  60.0739604  26.3118695  74.8734107
  60.8660896  25.9709520  74.4580406  60.3136254  26.4213670  75.7936260
  62.0330358  25.5727608  67.7451486  62.8061234  25.0256595  67.6064361
  62.3855756  26.4371857  67.9565947  63.8715400  26.9003990  80.9518385
  63.5805266  27.8049621  80.8365051  64.5072385  26.9420518  81.6662454
  64.7971607  24.2780839  77.5419745  65.3935179  24.0536861  76.8276708
  64.8546579  23.5365584  78.1445192  64.3696635  21.7320274  65.3769936
  64.6222156  21.2101796  64.6153399  63.4321195  21.5686420  65.4796619
  69.4139918  20.7356053  73.1844679  70.2003007  20.3175476  72.8335096
  69.6778623  21.6402145  73.3526327  69.5849996  26.1728903  67.8833336
  68.9495829  26.2463529  68.5954240  69.2547402  26.7622502  67.2052415
  74.8148345  20.6731286  74.0877657  75.5473517  20.1030503  74.3215487
  74.0587701  20.2852886  74.5284163  64.0892924  23.6348380  67.5794310
  63.9729182  22.9593284  68.2475395  64.1995184  23.1480754  66.7626464
  66.4324465  23.0958527  71.2841000  66.0682672  22.5689148  71.9953921
  67.2891581  22.7056996  71.1107485  72.3373766  14.3852860  78.5472266
  72.0057091  15.2548271  78.3233481  71.7419379  14.0689144  79.2266296
  66.0729952  18.1248427  66.2802348  66.2404354  18.9928663  66.6472819
  65.8827121  18.2875709  65.3563638  68.8305285  26.5865406  77.9468179
  68.5306008  27.4890445  77.8383986  68.4856345  26.3197589  78.7989332
  62.2817767  23.0379203  73.9804883  61.3568263  22.9055417  74.1882575
  62.5302180  23.8173422  74.4774825  72.2302429  19.1047946  75.6265616
  71.3219306  19.0363355  75.3324377  72.1790025  19.5819891  76.4547441
  66.0519173  20.5806085  67.2649015  65.9318798  21.0263135  68.1034495
  65.3571761  20.9291402  66.7062553  59.6426578  22.6812476  74.8148672
  59.7718959  22.9346955  75.7288084  58.9624029  23.2740184  74.4953327
  66.3043295  20.5237592  83.5700513  65.5276629  21.0831512  83.5603378
  66.9433858  21.0094375  84.0915383  74.0964075  17.3064385  77.4043490
  73.4538456  17.5996918  76.7583284  73.5919004  17.1917305  78.2096687
  71.7504239  21.0527558  68.0929349  72.6622095  21.2854944  67.9177047
  71.2413886  21.6364602  67.5304428  64.5589667  23.3323045  83.1318480
  65.3004352  23.8708089  82.8553304  63.8526653  23.9589334  83.2890032
  70.0345007  25.4752186  81.7290642  70.4428363  25.0334596  80.9845274
  69.3122268  24.9004813  81.9824835  66.3876077  20.4124792  79.1024199
  67.2337272  20.8364206  79.2458848  66.3274715  19.7558417  79.7962762
  70.3573821  26.0353376  75.4842931  69.7282684  26.1999090  74.7818998
  69.9699484  26.4494986  76.2553895  74.2363053  26.9707814  72.8387294
  73.5514091  27.3506715  72.2884328  74.3206903  27.5803141  73.5719242
  69.5375522  18.0729161  80.7605372  69.2936454  18.8271221  80.2239648
  69.8135453  18.4514508  81.5952619  71.4913985  24.6167773  79.4382638
  71.7030880  25.2599533  78.7617019  71.4443733  23.7830090  78.9704568
  69.0940214  17.2285594  76.3419210  68.2324693  17.5266847  76.6335948
  69.1202649  17.4455993  75.4100243  65.9101783  25.7727784  72.7493016
  66.3740129  26.0515487  71.9597638  65.6458581  24.8711229  72.5666106
  62.8025864  25.3199266  75.6872779  63.3727221  25.7486534  75.0490263
  63.3933976  25.0381850  76.3856965  64.8470669  21.8950937  69.5582581
  65.5494713  22.3471980  70.0256507  64.5151298  21.2534755  70.1862474
  63.2951031  20.4862693  83.9333790  62.6649691  21.1678974  84.1669187
  63.1887119  20.3745775  82.9886928  58.5896003  20.1534489  74.8599714
  57.7995057  20.4092018  74.3839825  59.0807251  20.9682827  74.9651755
  72.6059813  27.4939728  77.6104995  73.4277257  27.0919916  77.3287677
  72.6022216  27.3907963  78.5621111  60.5410749  20.5179069  71.8183191
  59.7441912  20.6297763  72.3366687  60.3136341  20.8565721  70.9524082
  66.3716416  27.0423772  79.7665706  66.4360849  27.5044179  80.6023878
  65.6627340  26.4121137  79.8948016  56.8733706  20.4064980  77.2914705
  57.1241745  21.2911990  77.5572281  57.4093255  20.2269581  76.5189797
  80.6965806  23.8378477  73.9589967  79.9429514  23.2685875  73.8033971
  80.8313347  23.8041141  74.9060601  62.5731774  14.7883459  86.2959041
  62.1798719  14.2349658  86.9706685  63.3897914  15.0994038  86.6865559
  59.5393831  26.2267317  70.2072611  60.0518352  27.0210568  70.3578176
  60.1916544  25.5293608  70.1406213  61.3488716  29.3433074  72.2895364
  61.5255344  30.2651038  72.1016348  62.1445550  29.0291493  72.7189744
  65.4899735  16.2041338  83.8879298  66.2309448  16.8048491  83.8083760
  65.7217657  15.4618976  83.3297340  60.6341073  21.3897705  82.1657528
  60.5194588  20.4882963  82.4664626  59.7785590  21.6361402  81.8142344
  67.7132910  29.3315446  83.7645028  67.2696765  28.5451824  83.4465933
  68.3750124  29.5194596  83.0988919  62.4720032  30.8611247  78.2905707
  63.0227457  30.7328311  77.5182701  61.6331507  31.1606136  77.9400599
  69.8114148  29.6118246  81.7926429  69.7932624  30.4327127  81.3006699
  70.7334068  29.4872321  82.0176571  66.2687203  27.1262375  82.6349938
  66.8015539  26.3650663  82.4049246  65.7401284  26.8336027  83.3774092
  69.4356898  12.2322441  78.1643580  69.0921167  13.1224083  78.0882690
  69.8035860  12.0424099  77.3013165  57.5042748  24.5555972  70.9832182
  58.3417970  24.9652980  70.7665889  57.6821016  23.6155414  70.9532376
  69.4007180  22.2231052  66.6716015  68.8853804  22.9935657  66.9104402
  69.1284489  21.5496188  67.2949076  66.9854291  17.0680753  71.7301253
  66.1295888  16.6787603  71.5506892  67.3981243  17.1472714  70.8701039
  68.5153438  14.6027096  76.1292813  68.0118234  14.5657231  75.3160618
  68.8084045  15.5119839  76.1889469  64.7596324  14.6865826  75.1358994
  65.6249321  14.4908635  74.7764884  64.8273833  14.4576178  76.0628351
  74.3741454  24.9763407  68.6069188  73.5970897  24.6374566  68.1624350
  75.0532935  24.9816030  67.9324153  69.1893483  20.0958144  68.4975796
  68.8843619  20.4104294  69.3485939  70.1423926  20.1739564  68.5403129
  67.6339915  26.2548368  70.1468750  67.1061277  25.5201127  69.8341987
  67.1327418  27.0323044  69.9008718  72.6132761  24.4497388  75.2635796
  71.9556436  25.1396650  75.3515925  73.4173161  24.8393820  75.6069782
  62.3658643  16.9168034  72.5075361  62.9402395  16.6943215  71.7748554
  62.9529625  16.9856728  73.2603963  71.4238220  22.8041761  73.3139738
  71.9370102  23.4371753  73.8161448  72.0739444  22.2042956  72.9483098
  62.6928230  18.9472495  66.5271247  61.8565542  19.2847181  66.8480521
  62.5533000  18.8121475  65.5898384  64.6681311  13.7909283  71.2350431
  64.0145723  13.4758300  70.6107046  64.6261785  13.1685023  71.9610254
  65.7792515  24.0728578  63.1503723  64.8719577  23.8417831  63.3494872
  66.2763547  23.2766197  63.3377704  67.9019051  20.2791216  75.5598078
  66.9841612  20.5006163  75.4019766  68.3179195  20.3537527  74.7009786
  68.6854099  21.6782632  70.6900759  69.4325918  22.1904029  70.3807881
  68.9545688  21.3566685  71.5505152  66.9580749  24.1741173  67.6727713
  66.0491968  23.8900206  67.7700183  66.9875833  24.5940251  66.8131020
  72.1900016  27.7847762  71.4418880  71.7362343  26.9438672  71.4984071
  71.5593983  28.4209161  71.7793661  71.1332936  18.7139748  72.6719548
  70.3955693  18.2017135  73.0029790  71.3859709  18.2740130  71.8602825
  70.6332956  29.6224259  72.3768699  70.9255930  30.1829316  71.6581064
  71.1431576  29.9152820  73.1321858  71.2344563  11.4916000  73.2661317
  71.5403440  10.6313364  72.9787232  71.9597168  12.0833621  73.0660311
  57.5268919  21.8946687  71.6542915  57.3293319  21.3016048  70.9293982
  56.9715583  21.5898897  72.3718854  65.5065643  21.7869793  73.7737508
  65.5614253  20.8343630  73.6979985  64.6956845  21.9429232  74.2578807
  66.6556837  25.7149916  65.0115791  66.2176267  24.9985775  64.5521429
  67.3967278  25.9426031  64.4500883  63.4458003  20.4046853  71.5327887
  62.6325868  20.7041024  71.9393079  63.9416997  20.0102542  72.2502369
  65.5966581  30.4004610  73.4662152  65.5542760  30.6265456  72.5370684
  66.5129280  30.1667985  73.6147953  69.0432215  20.8688678  80.3642781
  69.3981602  21.0960151  81.2237247  69.6904346  21.2007054  79.7420036
  74.7729951  23.9907113  71.0692110  74.6347850  24.1808709  70.1413299
  74.4166170  24.7526496  71.5260161  62.9372078  17.9765209  77.1489122
  63.5771457  17.8353968  76.4512085  62.1049608  17.6899722  76.7727724
  74.7999331  26.0583640  76.0803382  75.2335838  25.9658930  76.9286436
  75.5130912  26.0341141  75.4423398  63.7132382  27.2767639  73.2624115
  64.5072980  26.7817959  73.0606689  63.0024074  26.7485502  72.8991820
  68.5327226  29.6585735  77.6136482  68.5864248  30.2276671  78.3814198
  67.6642007  29.8287620  77.2490519  60.0215145  21.4210721  69.3383867
  59.0912733  21.3595176  69.5553829  60.1172617  20.8986674  68.5420508
  59.9400694  17.9465534  71.9262109  60.2007511  18.8610867  71.8171269
  60.7617866  17.4789976  72.0758722  61.4125619  19.3603291  79.0960933
  62.0848673  19.1520653  78.4473582  60.5855406  19.1625377  78.6566166
  75.6614881  26.1007341  78.6136267  75.8550771  27.0053152  78.8595542
  75.5615499  25.6414760  79.4474852  67.3151191  15.9865232  81.1126594
  66.6679106  16.6855181  81.0191071  68.0852207  16.4201376  81.4802842
  70.7229989  26.2514084  84.1877148  70.5715496  26.0224636  83.2707231
  70.7134669  27.2084685  84.2008493  67.4915326  23.8245997  79.1723414
  68.4207386  23.9757156  78.9992381  67.0706356  23.9130017  78.3172061
  66.2903658  27.8496661  76.9421952  66.1514743  27.4815445  77.8147890
  65.5018254  28.3644300  76.7705909  67.8408873  27.2278264  74.3310789
  67.5058705  27.1879034  75.2268439  67.3412818  26.5622980  73.8581200
  61.8153117  22.6345894  79.8563371  61.6772915  21.9026133  80.4574910
  62.7258040  22.5454794  79.5747558  70.7768064  24.5734298  64.6047849
  70.1597235  23.8481126  64.5080902  70.3084553  25.3343658  64.2614923
  64.4435417  22.3465853  79.3447050  65.1535036  21.7059045  79.3033669
  64.4004725  22.5978748  80.2673231  72.4322196  29.2833206  82.2653629
  72.3734742  28.5992427  81.5984212  72.8341714  30.0252196  81.8134255
  63.1564351  19.3331071  81.1642690  62.6201708  18.8821809  81.8164286
  62.5681060  19.4676980  80.4213154  61.4512895  36.0995120  75.0587348
  61.6909493  36.7313644  75.7366367  60.6082091  35.7483160  75.3452708
  62.5666610  18.7919722  63.7269153  61.6896077  18.6708523  63.3631400
  63.0424363  18.0005801  63.4748042  72.4339603  27.2472790  80.4967609
  71.5466382  26.9098712  80.6194008  73.0038154  26.5155822  80.7336374
  54.0868750  23.5796882  73.8210660  54.7739790  23.2658612  73.2331676
  53.9316879  24.4838247  73.5477912  58.8903473  18.4687079  78.2495684
  58.8061661  17.8612748  77.5146094  58.0686179  18.9596097  78.2505181
  65.9640757  31.9074243  77.4628852  65.8910928  32.7129214  77.9748157
  65.5218150  32.1066209  76.6376874  65.7530536  31.1446013  70.9731674
  64.9698058  31.6867693  71.0669898  66.4523281  31.6619992  71.3725915
  69.0627186  16.9540642  73.6165879  69.5595886  16.2010605  73.2966949
  68.2914168  16.9904959  73.0509089  76.9156944  22.6581008  75.2584171
  76.9046820  23.5405723  74.8878104  76.0474323  22.3052559  75.0638708
  68.4239440  31.8061077  79.6187011  69.1367412  32.4408542  79.5462912
  67.9329469  31.9024943  78.8027013  70.1456967  25.7112329  71.1904303
  69.2113246  25.8313792  71.0209007  70.3233636  24.8084796  70.9264312
  65.6462155  19.0958025  73.3437564  65.2759943  18.5429066  74.0318469
  66.1421248  18.4916159  72.7912564  73.5329518  21.5529649  71.7254337
  73.9989971  22.3857640  71.6514639  73.9837019  21.0874630  72.4299595
  63.4751354  29.5555520  80.4392582  64.1760813  30.1892003  80.5921976
  63.0046469  29.8970252  79.6788221  71.5046181  13.9210236  75.7645238
  70.5909261  14.1514463  75.9327445  71.9339283  14.0048680  76.6159270
  71.2752640  22.1100128  78.2645132  70.6224090  22.3576035  77.6097585
  71.6533020  21.2964266  77.9307609  67.3240213  22.8519939  84.7511169
  66.6480850  22.7514068  85.4213544  68.1467847  22.6959152  85.2147166
  59.0719072  29.0891875  77.3723684  59.6572509  28.3435563  77.5051589
  58.8743910  29.3995832  78.2560348  61.9257727  32.1243123  72.3886127
  61.2568102  32.6089250  71.9050167  61.7870597  32.3712343  73.3029505
  53.6636727  21.6597475  76.0928128  53.7020826  21.1261066  76.8865246
  53.1577019  21.1332681  75.4739105  66.0662996  34.1586866  78.9868785
  66.6181304  34.3218488  79.7517870  66.4069189  34.7491304  78.3148810
  61.0427489  16.5062016  79.5890670  61.1068815  17.3676847  79.1768068
  60.9794609  15.8936018  78.8563028  60.5179761  18.5785149  83.2363704
  61.1451800  18.1962226  83.8501228  59.6607680  18.3599350  83.6019397
  70.9173870  28.9848124  84.8417440  71.4613774  29.5978082  84.3472394
  70.3360715  29.5427702  85.3584453  57.2945304  20.3861578  69.1682059
  57.5898745  19.4772256  69.1149113  56.3933340  20.3649317  68.8463061
  69.2031383  32.1068842  75.9732467  69.0782522  31.3058582  75.4643413
  69.8610474  32.6015035  75.4846437  60.8239551  18.4617574  75.1509608
  60.1026137  19.0753542  75.0117081  61.6132807  18.9975339  75.0726254
  71.2666291  29.9077862  77.6012017  70.3196627  29.7883213  77.5290344
  71.6149064  29.0200360  77.6838279  63.6265865  15.7972001  81.4250259
  64.1500266  16.0434297  82.1876569  63.4078198  16.6292036  81.0053397
  59.0233146  18.0675675  69.2921384  58.6945852  17.1873054  69.1096490
  59.3772516  18.0123344  70.1797773  68.2712725  29.7030578  73.8016370
  68.1237687  28.7747285  73.9823940  69.0966218  29.7250669  73.3173445
  62.1374969  18.3548645  69.6596862  62.4771041  18.8834566  68.9375470
  62.5847089  18.6929051  70.4355428  71.8746846  30.5259137  74.8881242
  72.7993394  30.3201998  74.7505694  71.7062150  30.2775538  75.7970584
  64.8318410  16.7385696  79.1099930  64.4915230  15.9393509  79.5120610
  64.1257416  17.0387407  78.5376763  65.4834881  13.8235008  77.5627253
  66.3060951  13.3495486  77.4406143  65.7272945  14.6025492  78.0625939
  64.1243116  16.8523267  67.8590155  64.8451478  17.2304519  67.3553871
  63.5008420  17.5712143  67.9625133  68.2674239  17.5568416  68.7948487
  68.4837853  18.4393054  68.4937315  67.7868306  17.1654629  68.0654129
  63.0073460  20.5154129  75.3719232  62.8618041  20.8294432  76.2643513
  62.5298664  21.1339029  74.8190130  64.8669843  17.5056677  75.4200121
  64.8531412  16.6097770  75.0832419  65.5842271  17.5127341  76.0538407
  66.7195974  17.9394017  77.4653249  66.4613752  18.8611088  77.4637579
  66.1881014  17.5424452  78.1553713  57.4819122  23.0559473  78.3106893
  56.9372590  23.8319281  78.4427167  58.3598472  23.4030278  78.1526014
  64.2706739  16.3871057  70.6887691  64.3922650  15.4587703  70.8878579
  63.9808781  16.4009743  69.7766007  67.1397929  14.0725968  73.8254411
  67.1619626  14.1365301  72.8706391  67.5565988  13.2330476  74.0194917
  77.5181554  23.8081227  71.8633634  77.9612700  23.0588552  71.4652757
  76.6408064  23.7991363  71.4807366  58.2685144  22.1829370  81.2037050
  57.5266880  22.3312005  81.7901680  57.9477889  22.4437635  80.3403799
  74.5508758  27.8111274  68.8727563  75.0760082  28.1498547  68.1476883
  74.4631111  26.8758289  68.6890698  66.2128807  31.7245348  81.0017440
  66.5215933  31.4794495  81.8740139  67.0104289  31.9291986  80.5136310
  58.7141758  30.0694798  73.2347444  59.5399778  29.7698570  72.8546088
  58.3635810  29.3002421  73.6837233  63.6823291  29.4221266  75.3045118
  63.0603300  28.7591972  75.0047346  64.3528158  29.4482398  74.6218766
  56.9150363  27.9881125  74.1936378  56.0782271  27.5603299  74.0120379
  56.8874008  28.1813568  75.1307169  63.7547819  17.9003055  84.8977624
  63.8035974  18.7765177  84.5155393  64.2970333  17.3580448  84.3249267
  74.2402664  28.4444178  84.1778761  73.4498208  28.4268317  83.6383260
  74.0036019  28.9832471  84.9327797  74.3600539  25.2936644  81.4911489
  74.4098544  25.1286652  82.4327012  74.2514463  24.4263903  81.1009370
  63.2436798  27.9725190  68.7803578  63.3924918  28.6560654  68.1270251
  64.0503241  27.9530280  69.2953034  71.6504302  21.2767572  82.8070796
  72.5514164  21.1374037  82.5154794  71.7252276  21.4422027  83.7468974
  65.9847107  18.6534427  81.6523982  65.1150416  18.9467993  81.3806571
  66.2206587  19.2374872  82.3731246  75.8618736  27.7133586  81.7353511
  75.5703544  28.0763566  82.5716972  75.2490867  27.0000594  81.5566843
  77.0614418  25.2786465  74.2556081  77.8961310  25.7176270  74.4193642
  77.1973547  24.8025119  73.4364327  74.1105924  22.8366200  80.2033569
  74.5860046  23.0293847  79.3952420  73.1871490  22.8925386  79.9576953
  60.9989431  23.9990367  69.7864647  60.7535473  23.0952697  69.9844857
  61.1685346  24.0007518  68.8444125  68.6886141  14.8714044  79.1689403
  69.2068085  15.6075071  78.8435891  68.3341274  15.1778037  80.0036162
  60.2685079  19.7318725  67.2850809  59.5754323  19.8063080  66.6290845
  60.0236830  18.9679069  67.8072326  68.9398735  11.2914326  74.6890299
  69.2200489  10.6237515  75.3150726  69.7249342  11.4843422  74.1764963
  72.8107593  19.7131960  78.4361875  73.7625016  19.8130058  78.4574099
  72.6411044  18.9210229  78.9459959  70.8321973  16.7987544  78.6221275
  70.2371905  17.0792556  77.9267764  70.5471670  17.2881445  79.3938017
  75.2895671  22.9338080  77.5504174  75.2571991  21.9954081  77.7363858
  75.8996295  23.0122117  76.8169999  67.1279002  21.8034133  63.5931378
  68.0738107  21.6740341  63.6619796  66.7493247  21.0648795  64.0700806
  75.4390160  19.7249123  77.5962457  74.9229208  18.9407580  77.4092386
  76.3230108  19.3967840  77.7608977  73.1000887  13.4690139  73.5558270
  72.9025708  13.1605227  74.4401602  73.7100592  14.1951778  73.6856200
  81.1072221  23.9954087  76.6910211  81.8375609  23.7339375  77.2517914
  80.4979166  23.2582809  76.7312279  79.1887518  22.1361949  77.2884662
  78.4620682  22.0017914  76.6801154  78.7734805  22.4438778  78.0941380
  67.0117695  25.8551879  85.0532035  67.9320704  26.0330478  85.2472082
  66.9767278  24.9107925  84.9011735  65.3121919  19.7284109  63.5286263
  64.4053375  19.4317222  63.6048977  65.5897900  19.4313928  62.6620550
  56.2299860  21.0490473  73.9785310  55.9102644  20.1955781  73.6859684
  55.6833288  21.2639051  74.7343277  60.0079767  23.7652914  77.6954816
  60.2265777  24.6970022  77.7142850  60.4205541  23.4060888  78.4809620
  66.9283985  14.2720999  69.6830505  66.1184713  13.9268084  70.0585751
  67.6168402  13.9628543  70.2718116  68.8574533  13.3499046  71.3054801
  69.4105572  13.7694499  71.9644825  69.0944620  12.4234794  71.3477757
  64.8807632  19.3386120  87.0857565  64.7804359  20.2880477  87.0169656
  64.6629174  19.0104358  86.2133635  64.0820704  16.5871045  63.6698243
  64.9439868  16.9125943  63.9294060  64.2671048  15.8002541  63.1571308
  56.0988120  24.6693384  75.9478431  55.4051591  24.2547337  75.4348386
  56.8461111  24.7113921  75.3511850  72.2353340  15.4599571  70.8133466
  71.6552009  16.1184375  70.4311518  71.9689273  14.6376916  70.4020883
  70.6856907  14.8604629  73.0154786  71.1856685  14.9721163  72.2069105
  71.3292515  14.5565682  73.6555594  64.7438902  22.7683258  85.9022627
  64.2605984  23.5683619  86.1086516  64.8299842  22.7791203  84.9490071
  58.0124862  24.6011638  73.8244446  57.9895550  24.6999325  72.8726329
  58.3225499  25.4476789  74.1461612  60.6712240  26.6587793  77.9391061
  61.6255494  26.6271735  77.8720992  60.4724764  26.1978417  78.7541287
  61.2611622  25.2288909  80.5061858  62.0804511  25.7232988  80.5296696
  61.5348430  24.3120877  80.4779426  71.0178218  17.6199661  69.8689814
  70.1304073  17.9049312  69.6510009  71.4332207  17.4593425  69.0217091
  74.3692754  17.6446182  73.5844153  75.1453145  18.1342635  73.8568770
  73.6440889  18.0704237  74.0416023  76.8065313  18.3573802  74.6418094
  77.4009804  18.1169538  73.9311402  76.8791897  17.6380932  75.2691630
  59.0262469  32.2007413  74.9561259  58.8916937  31.4407814  74.3899257
  58.6094531  32.9248312  74.4890048  70.9919242  23.1354197  70.0840104
  70.9354443  23.5922749  69.2447737  71.5447585  22.3744882  69.9062947
  74.8024048  18.9243929  70.9090224  74.5460982  18.5240565  71.7398431
  74.1776916  19.6387723  70.7840363  79.1136386  21.6640003  73.4161515
  78.5535944  21.7333192  74.1893077  78.5079889  21.4880987  72.6961011
  62.1831595  33.0976730  75.1679701  62.0663979  34.0422162  75.0658392
  61.3624041  32.7950291  75.5565500  71.7254021  24.3258979  67.3792633
  71.6702825  24.1603250  66.4381077  71.1000077  25.0335012  67.5354823
  56.5146536  19.5627043  81.2054055  57.1605400  19.0525997  81.6941281
  56.3063687  20.2995725  81.7797481  69.0399929  26.6307891  86.7046196
  69.9091088  26.8048543  86.3432831  68.5606680  27.4502307  86.5821925
  65.0350147  13.8267088  66.9577952  65.0228817  14.7708928  67.1146223
  65.9273569  13.6437233  66.6637413  63.2086109  33.7504992  78.3835630
  64.1113355  33.7828602  78.7002125  62.9823479  32.8205442  78.3981965
  64.9639711  32.5035978  75.0445708  64.0135342  32.5037840  74.9310081
  65.2672197  31.7568713  74.5281743  68.8502266  10.4209864  71.2123888
  68.0834662   9.8668351  71.3580571  69.2612971  10.4931733  72.0738040
  60.8544027  16.7094660  85.3029070  61.7175489  16.3531465  85.5132394
  60.2809438  16.3708555  85.9904474  80.6992404  38.3396516  76.1091471
  81.3370814  38.2203264  75.4054811  80.5813247  39.2877360  76.1679423
  77.5082111  38.2923945  76.0452995  77.1700622  38.1765009  75.1573530
  78.3771879  37.8915110  76.0254002  73.3668926  40.1459421  72.0349886
  72.8033791  40.0549358  71.2666174  73.2521321  39.3259325  72.5152379
  77.9901894  39.4458796  82.0039201  77.9790534  39.0511595  81.1319705
  78.1522533  38.7124869  82.5972972  70.9133358  41.6410613  74.8734107
  71.7054650  41.3001437  74.4580406  71.1530008  41.7505588  75.7936260
  78.9468485  43.8130389  67.3464351  78.2956465  44.3984469  66.9598365
  79.7412848  44.3436584  67.4059389  74.7109155  42.2295908  80.9518385
  74.4199021  43.1341539  80.8365051  75.3466139  42.2712436  81.6662454
  75.6365362  39.6072757  77.5419745  76.2328934  39.3828779  76.8276708
  75.6940333  38.8657502  78.1445192  80.2533673  36.0647970  73.1844679
  81.0396762  35.6467393  72.8335096  80.5172377  36.9694063  73.3526327
  80.4243750  41.5020821  67.8833336  79.7889583  41.5755447  68.5954240
  80.0941157  42.0914419  67.2052415  85.6542100  36.0023204  74.0877657
  86.3867272  35.4322420  74.3215487  84.8981456  35.6144804  74.5284163
  77.2718220  38.4250445  71.2841000  76.9076427  37.8981066  71.9953921
  78.1285336  38.0348914  71.1107485  83.1767520  29.7144778  78.5472266
  82.8450845  30.5840189  78.3233481  82.5813134  29.3981062  79.2266296
  79.6699040  41.9157324  77.9468179  79.3699763  42.8182362  77.8383986
  79.3250099  41.6489507  78.7989332  73.1211521  38.3671120  73.9804883
  72.1962018  38.2347335  74.1882575  73.3695934  39.1465340  74.4774825
  83.0696184  34.4339864  75.6265616  82.1613061  34.3655272  75.3324377
  83.0183779  34.9111809  76.4547441  70.4820332  38.0104394  74.8148672
  70.6112713  38.2638873  75.7288084  69.8017784  38.6032102  74.4953327
  77.1437049  35.8529509  83.5700513  76.3670383  36.4123430  83.5603378
  77.7827612  36.3386292  84.0915383  84.9357830  32.6356302  77.4043490
  84.2932210  32.9288835  76.7583284  84.4312758  32.5209223  78.2096687
  75.3983422  38.6614963  83.1318480  76.1398106  39.2000007  82.8553304
  74.6920407  39.2881252  83.2890032  80.8738761  40.8044103  81.7290642
  81.2822117  40.3626514  80.9845274  80.1516023  40.2296731  81.9824835
  77.2269831  35.7416710  79.1024199  78.0731027  36.1656124  79.2458848
  77.1668469  35.0850334  79.7962762  81.1967576  41.3645294  75.4842931
  80.5676438  41.5291008  74.7818998  80.8093238  41.7786903  76.2553895
  85.0756808  42.2999732  72.8387294  84.3907846  42.6798633  72.2884328
  85.1600657  42.9095058  73.5719242  80.3769277  33.4021078  80.7605372
  80.1330209  34.1563139  80.2239648  80.6529207  33.7806426  81.5952619
  82.3307739  39.9459691  79.4382638  82.5424635  40.5891451  78.7617019
  82.2837488  39.1122007  78.9704568  79.9333968  32.5577511  76.3419210
  79.0718447  32.8558765  76.6335948  79.9596403  32.7747910  75.4100243
  76.7495538  41.1019702  72.7493016  77.2133883  41.3807405  71.9597638
  76.4852336  40.2003147  72.5666106  73.6419619  40.6491183  75.6872779
  74.2120976  41.0778452  75.0490263  74.2327731  40.3673768  76.3856965
  75.6864424  37.2242854  69.5582581  76.3888467  37.6763898  70.0256507
  75.3545052  36.5826673  70.1862474  74.1344785  35.8154611  83.9333790
  73.5043446  36.4970892  84.1669187  74.0280873  35.7037693  82.9886928
  69.4289758  35.4826407  74.8599714  68.6388812  35.7383935  74.3839825
  69.9201005  36.2974745  74.9651755  83.4453567  42.8231646  77.6104995
  84.2671011  42.4211833  77.3287677  83.4415970  42.7199880  78.5621111
  77.2110171  42.3715689  79.7665706  77.2754603  42.8336097  80.6023878
  76.5021095  41.7413054  79.8948016  67.7127461  35.7356897  77.2914705
  67.9635499  36.6203907  77.5572281  68.2487009  35.5561499  76.5189797
  91.5359560  39.1670395  73.9589967  90.7823269  38.5977793  73.8033971
  91.6707102  39.1333059  74.9060601  76.9258188  44.0383797  69.6344686
  76.7903863  44.8835333  70.0629534  77.4668001  44.2403075  68.8710620
  73.4125528  30.1175377  86.2959041  73.0192474  29.5641575  86.9706685
  74.2291668  30.4285955  86.6865559  72.1882471  44.6724991  72.2895364
  72.3649099  45.5942956  72.1016348  72.9839304  44.3583410  72.7189744
  76.3293489  31.5333256  83.8879298  77.0703202  32.1340409  83.8083760
  76.5611412  30.7910894  83.3297340  71.4734827  36.7189623  82.1657528
  71.3588342  35.8174880  82.4664626  70.6179345  36.9653320  81.8142344
  78.5526665  44.6607363  83.7645028  78.1090519  43.8743742  83.4465933
  79.2143878  44.8486514  83.0988919  73.3113786  46.1903165  78.2905707
  73.8621211  46.0620228  77.5182701  72.4725262  46.4898054  77.9400599
  80.6507903  44.9410163  81.7926429  80.6326378  45.7619044  81.3006699
  81.5727823  44.8164239  82.0176571  77.1080957  42.4554293  82.6349938
  77.6409294  41.6942581  82.4049246  76.5795038  42.1627945  83.3774092
  80.2750652  27.5614359  78.1643580  79.9314921  28.4516000  78.0882690
  80.6429615  27.3716016  77.3013165  77.8248046  32.3972671  71.7301253
  76.9689642  32.0079521  71.5506892  78.2374998  32.4764631  70.8701039
  79.3547192  29.9319014  76.1292813  78.8511988  29.8949149  75.3160618
  79.6477799  30.8411757  76.1889469  75.5990078  30.0157744  75.1358994
  76.4643075  29.8200552  74.7764884  75.6667587  29.7868095  76.0628351
  85.2135209  40.3055325  68.6069188  84.4364652  39.9666484  68.1624350
  85.8926690  40.3107948  67.9324153  78.4733670  41.5840285  70.1468750
  77.9455031  40.8493045  69.8341987  77.9721173  42.3614962  69.9008718
  83.4526516  39.7789306  75.2635796  82.7950190  40.4688567  75.3515925
  84.2566915  40.1685738  75.6069782  73.2052397  32.2459952  72.5075361
  73.7796149  32.0235133  71.7748554  73.7923380  32.3148646  73.2603963
  82.2631975  38.1333678  73.3139738  82.7763856  38.7663670  73.8161448
  82.9133198  37.5334874  72.9483098  75.5075065  29.1201201  71.2350431
  74.8539477  28.8050218  70.6107046  75.4655539  28.4976941  71.9610254
  78.7412805  35.6083134  75.5598078  77.8235367  35.8298081  75.4019766
  79.1572949  35.6829445  74.7009786  79.5247853  37.0074550  70.6900759
  80.2719672  37.5195947  70.3807881  79.7939443  36.6858602  71.5505152
  83.0293771  43.1139680  71.4418880  82.5756098  42.2730590  71.4984071
  82.3987738  43.7501078  71.7793661  81.9726690  34.0431666  72.6719548
  81.2349447  33.5309052  73.0029790  82.2253464  33.6032048  71.8602825
  81.4726710  44.9516177  72.3768699  81.7649684  45.5121234  71.6581064
  81.9825331  45.2444738  73.1321858  82.0738318  26.8207918  73.2661317
  82.3797195  25.9605281  72.9787232  82.7990923  27.4125538  73.0660311
  76.3459397  37.1161711  73.7737508  76.4008007  36.1635547  73.6979985
  75.5350599  37.2721150  74.2578807  74.2851757  35.7338771  71.5327887
  73.4719623  36.0332941  71.9393079  74.7810752  35.3394460  72.2502369
  76.4360335  45.7296528  73.4662152  76.3936514  45.9557374  72.5370684
  77.3523034  45.4959902  73.6147953  79.8825969  36.1980595  80.3642781
  80.2375357  36.4252068  81.2237247  80.5298100  36.5298972  79.7420036
  85.6123706  39.3199031  71.0692110  85.4741605  39.5100627  70.1413299
  85.2559925  40.0818414  71.5260161  73.7765832  33.3057126  77.1489122
  74.4165211  33.1645885  76.4512085  72.9443363  33.0191640  76.7727724
  85.6393086  41.3875558  76.0803382  86.0729592  41.2950847  76.9286436
  86.3524666  41.3633059  75.4423398  74.5526136  42.6059557  73.2624115
  75.3466735  42.1109877  73.0606689  73.8417828  42.0777420  72.8991820
  79.3720981  44.9877652  77.6136482  79.4258003  45.5568589  78.3814198
  78.5035762  45.1579537  77.2490519  72.2519374  34.6895208  79.0960933
  72.9242427  34.4812571  78.4473582  71.4249160  34.4917294  78.6566166
  86.5008635  41.4299259  78.6136267  86.6944525  42.3345069  78.8595542
  86.4009253  40.9706678  79.4474852  78.1544946  31.3157149  81.1126594
  77.5072861  32.0147099  81.0191071  78.9245961  31.7493293  81.4802842
  81.5623744  41.5806002  84.1877148  81.4109250  41.3516553  83.2707231
  81.5528423  42.5376603  84.2008493  78.3309080  39.1537914  79.1723414
  79.2601140  39.3049074  78.9992381  77.9100110  39.2421935  78.3172061
  77.1297412  43.1788579  76.9421952  76.9908498  42.8107363  77.8147890
  76.3412008  43.6936218  76.7705909  78.6802627  42.5570181  74.3310789
  78.3452460  42.5170951  75.2268439  78.1806573  41.8914897  73.8581200
  72.6546871  37.9637811  79.8563371  72.5166669  37.2318050  80.4574910
  73.5651795  37.8746712  79.5747558  75.2829172  37.6757771  79.3447050
  75.9928790  37.0350963  79.3033669  75.2398480  37.9270666  80.2673231
  83.2715950  44.6125124  82.2653629  83.2128497  43.9284344  81.5984212
  83.6735469  45.3544114  81.8134255  73.9958106  34.6622989  81.1642690
  73.4595463  34.2113727  81.8164286  73.4074814  34.7968897  80.4213154
  72.2906649  51.4287038  75.0587348  72.5303248  52.0605562  75.7366367
  71.4475846  51.0775078  75.3452708  83.2733358  42.5764708  80.4967609
  82.3860137  42.2390630  80.6194008  83.8431909  41.8447739  80.7336374
  69.7297227  33.7978996  78.2495684  69.6455416  33.1904666  77.5146094
  68.9079933  34.2888015  78.2505181  76.8034511  47.2366160  77.4628852
  76.7304683  48.0421132  77.9748157  76.3611904  47.4358126  76.6376874
  79.9020941  32.2832560  73.6165879  80.3989640  31.5302522  73.2966949
  79.1307922  32.3196877  73.0509089  87.7550698  37.9872925  75.2584171
  87.7440575  38.8697641  74.8878104  86.8868078  37.6344476  75.0638708
  79.2633195  47.1352994  79.6187011  79.9761167  47.7700459  79.5462912
  78.7723223  47.2316860  78.8027013  80.9850722  41.0404247  71.1904303
  80.0507000  41.1605710  71.0209007  81.1627390  40.1376714  70.9264312
  76.4855910  34.4249943  73.3437564  76.1153697  33.8720983  74.0318469
  76.9815002  33.8208076  72.7912564  84.3723273  36.8821566  71.7254337
  84.8383725  37.7149558  71.6514639  84.8230773  36.4166548  72.4299595
  74.3145108  44.8847438  80.4392582  75.0154568  45.5183921  80.5921976
  73.8440223  45.2262169  79.6788221  82.4399504  43.2265388  68.7240489
  82.7159348  43.1121982  69.6334363  81.5704003  42.8282873  68.6852662
  82.3439936  29.2502153  75.7645238  81.4303015  29.4806380  75.9327445
  82.7733037  29.3340597  76.6159270  82.1146394  37.4392045  78.2645132
  81.4617844  37.6867953  77.6097585  82.4926774  36.6256184  77.9307609
  79.0753568  47.4751739  72.3673302  79.2575963  46.6573394  72.8301055
  79.8986554  47.6919431  71.9298192  79.4095734  46.4019924  69.6288351
  79.9383500  45.8912378  69.0158513  79.6723953  46.0862454  70.4933884
  78.1633967  38.1811856  84.7511169  77.4874604  38.0805986  85.4213544
  78.9861601  38.0251070  85.2147166  69.9112826  44.4183793  77.3723684
  70.4966263  43.6727481  77.5051589  69.7137665  44.7287750  78.2560348
  64.5030481  36.9889393  76.0928128  64.5414581  36.4552984  76.8865246
  63.9970774  36.4624599  75.4739105  76.9056750  49.4878784  78.9868785
  77.4575058  49.6510405  79.7517870  77.2462944  50.0783222  78.3148810
  71.8821243  31.8353934  79.5890670  71.9462570  32.6968765  79.1768068
  71.8188364  31.2227935  78.8563028  71.3573516  33.9077066  83.2363704
  71.9845555  33.5254144  83.8501228  70.5001435  33.6891268  83.6019397
  81.7567624  44.3140041  84.8417440  82.3007528  44.9270000  84.3472394
  81.1754469  44.8719620  85.3584453  80.0425137  47.4360759  75.9732467
  79.9176277  46.6350499  75.4643413  80.7004228  47.9306953  75.4846437
  71.6633306  33.7909492  75.1509608  70.9419891  34.4045460  75.0117081
  72.4526561  34.3267257  75.0726254  82.1060046  45.2369779  77.6012017
  81.1590381  45.1175131  77.5290344  82.4542819  44.3492278  77.6838279
  74.4659619  31.1263918  81.4250259  74.9894021  31.3726215  82.1876569
  74.2471952  31.9583953  81.0053397  79.1106479  45.0322496  73.8016370
  78.9631441  44.1039203  73.9823940  79.9359973  45.0542586  73.3173445
  82.7140601  45.8551054  74.8881242  83.6387148  45.6493916  74.7505694
  82.5455904  45.6067456  75.7970584  75.6712164  32.0677614  79.1099930
  75.3308984  31.2685427  79.5120610  74.9651170  32.3679324  78.5376763
  76.3228636  29.1526926  77.5627253  77.1454705  28.6787404  77.4406143
  76.5666699  29.9317410  78.0625939  79.1067993  32.8860333  68.7948487
  79.3231608  33.7684971  68.4937315  78.6262060  32.4946547  68.0654129
  73.8467215  35.8446047  75.3719232  73.7011795  36.1586350  76.2643513
  73.3692418  36.4630947  74.8190130  75.7063598  32.8348595  75.4200121
  75.6925166  31.9389688  75.0832419  76.4236026  32.8419258  76.0538407
  77.5589728  33.2685935  77.4653249  77.3007506  34.1903005  77.4637579
  77.0274769  32.8716369  78.1553713  82.5035917  46.3736722  70.2443334
  82.6772795  45.8083144  69.4917186  82.9964808  47.1737617  70.0622824
  68.3212877  38.3851391  78.3106893  67.7766345  39.1611199  78.4427167
  69.1992227  38.7322195  78.1526014  75.1100494  31.7162975  70.6887691
  75.2316405  30.7879621  70.8878579  74.8202536  31.7301661  69.7766007
  77.9791684  29.4017885  73.8254411  78.0013381  29.4657218  72.8706391
  78.3959743  28.5622394  74.0194917  88.3575308  39.1373145  71.8633634
  88.8006454  38.3880470  71.4652757  87.4801819  39.1283281  71.4807366
  83.4911090  45.6903486  67.3440232  84.1861994  46.3110179  67.5627547
  83.8334240  44.8398837  67.6192610  69.1078899  37.5121287  81.2037050
  68.3660635  37.6603923  81.7901680  68.7871643  37.7729553  80.3403799
  85.3902513  43.1403192  68.8727563  85.9153837  43.4790465  68.1476883
  85.3024865  42.2050207  68.6890698  77.0522561  47.0537265  81.0017440
  77.3609688  46.8086412  81.8740139  77.8498043  47.2583904  80.5136310
  69.5535512  45.3986716  73.2347444  70.3793532  45.0990488  72.8546088
  69.2029564  44.6294338  73.6837233  74.5217046  44.7513184  75.3045118
  73.8997055  44.0883889  75.0047346  75.1921912  44.7774316  74.6218766
  67.7544117  43.3173042  74.1936378  66.9176026  42.8895217  74.0120379
  67.7267763  43.5105486  75.1307169  74.5941573  33.2294972  84.8977624
  74.6429729  34.1057095  84.5155393  75.1364087  32.6872365  84.3249267
  85.0796419  43.7736095  84.1778761  84.2891962  43.7560234  83.6383260
  84.8429773  44.3124389  84.9327797  85.1994294  40.6228562  81.4911489
  85.2492299  40.4578569  82.4327012  85.0908217  39.7555821  81.1009370
  74.0830552  43.3017108  68.7803578  74.2318673  43.9852572  68.1270251
  74.8896996  43.2822198  69.2953034  82.4898056  36.6059490  82.8070796
  83.3907919  36.4665955  82.5154794  82.5646031  36.7713945  83.7468974
  76.8240862  33.9826345  81.6523982  75.9544171  34.2759911  81.3806571
  77.0600342  34.5666790  82.3731246  86.7012491  43.0425503  81.7353511
  86.4097299  43.4055484  82.5716972  86.0884622  42.3292512  81.5566843
  87.9008173  40.6078383  74.2556081  88.7355064  41.0468187  74.4193642
  88.0367302  40.1317036  73.4364327  84.9499679  38.1658118  80.2033569
  85.4253800  38.3585764  79.3952420  84.0265244  38.2217304  79.9576953
  79.5279895  30.2005962  79.1689403  80.0461839  30.9366988  78.8435891
  79.1735028  30.5069955  80.0036162  79.7792490  26.6206244  74.6890299
  80.0594243  25.9529433  75.3150726  80.5643096  26.8135340  74.1764963
  83.6501348  35.0423878  78.4361875  84.6018771  35.1421976  78.4574099
  83.4804798  34.2502147  78.9459959  81.6715727  32.1279461  78.6221275
  81.0765659  32.4084474  77.9267764  81.3865424  32.6173362  79.3938017
  86.1289426  38.2629998  77.5504174  86.0965746  37.3245998  77.7363858
  86.7390049  38.3414034  76.8169999  86.2783914  35.0541041  77.5962457
  85.7622963  34.2699498  77.4092386  87.1623863  34.7259758  77.7608977
  83.9394641  28.7982057  73.5558270  83.7419462  28.4897145  74.4401602
  84.5494347  29.5243696  73.6856200  91.9465976  39.3246005  76.6910211
  92.6769364  39.0631293  77.2517914  91.3372921  38.5874727  76.7312279
  90.0281273  37.4653867  77.2884662  89.3014436  37.3309832  76.6801154
  89.6128560  37.7730696  78.0941380  77.8511449  41.1843797  85.0532035
  78.7714459  41.3622396  85.2472082  77.8161032  40.2399842  84.9011735
  70.8473522  39.0944832  77.6954816  71.0659531  40.0261939  77.7142850
  71.2599295  38.7352806  78.4809620  77.7677739  29.6012917  69.6830505
  76.9578468  29.2560002  70.0585751  78.4562156  29.2920461  70.2718116
  79.6968288  28.6790964  71.3054801  80.2499326  29.0986417  71.9644825
  79.9338374  27.7526712  71.3477757  75.7201387  34.6678037  87.0857565
  75.6198114  35.6172394  87.0169656  75.5022929  34.3396276  86.2133635
  66.9381874  39.9985302  75.9478431  66.2445345  39.5839255  75.4348386
  67.6854865  40.0405839  75.3511850  83.0747095  30.7891489  70.8133466
  82.4945764  31.4476293  70.4311518  82.8083027  29.9668833  70.4020883
  81.5250661  30.1896546  73.0154786  82.0250440  30.3013081  72.2069105
  82.1686269  29.8857599  73.6555594  75.5832657  38.0975176  85.9022627
  75.0999739  38.8975536  86.1086516  75.6693596  38.1083121  84.9490071
  71.5105994  41.9879711  77.9391061  72.4649248  41.9563653  77.8720992
  71.3118518  41.5270335  78.7541287  72.1005377  40.5580827  80.5061858
  72.9198266  41.0524906  80.5296696  72.3742184  39.6412795  80.4779426
  81.8571973  32.9491579  69.8689814  80.9697828  33.2341230  69.6510009
  82.2725962  32.7885343  69.0217091  85.2086509  32.9738100  73.5844153
  85.9846899  33.4634553  73.8568770  84.4834643  33.3996154  74.0416023
  87.6459068  33.6865719  74.6418094  88.2403558  33.4461455  73.9311402
  87.7185651  32.9672850  75.2691630  69.8656223  47.5299330  74.9561259
  69.7310691  46.7699731  74.3899257  69.4488286  48.2540230  74.4890048
  81.8312997  38.4646115  70.0840104  81.7748198  38.9214667  69.2447737
  82.3841339  37.7036800  69.9062947  85.6417802  34.2535847  70.9090224
  85.3854737  33.8532483  71.7398431  85.0170670  34.9679641  70.7840363
  89.9530140  36.9931920  73.4161515  89.3929698  37.0625110  74.1893077
  89.3473644  36.8172905  72.6961011  73.0225349  48.4268647  75.1679701
  72.9057733  49.3714080  75.0658392  72.2017795  48.1242209  75.5565500
  82.5647776  39.6550896  67.3792633  82.5096580  39.4895168  66.4381077
  81.9393831  40.3626929  67.5354823  67.3540291  34.8918961  81.2054055
  67.9999154  34.3817915  81.6941281  67.1457442  35.6287642  81.7797481
  79.8793683  41.9599808  86.7046196  80.7484843  42.1340460  86.3432831
  79.4000435  42.7794225  86.5821925  74.0479863  49.0796909  78.3835630
  74.9507110  49.1120519  78.7002125  73.8217233  48.1497360  78.3981965
  75.8033465  47.8327896  75.0445708  74.8529096  47.8329757  74.9310081
  76.1065951  47.0860630  74.5281743  79.6896021  25.7501782  71.2123888
  78.9228417  25.1960269  71.3580571  80.1006726  25.8223651  72.0738040
  71.6937782  32.0386578  85.3029070  72.5569243  31.6823383  85.5132394
  71.1203192  31.7000473  85.9904474  91.5386159  53.6688434  76.1091471
  92.1764569  53.5495182  75.4054811  91.4207002  54.6169278  76.1679423
  88.3475865  53.6215862  76.0452995  88.0094377  53.5056927  75.1573530
  89.2165633  53.2207027  76.0254002  88.8295648  54.7750714  82.0039201
  88.8184289  54.3803512  81.1319705  88.9916288  54.0416787  82.5972972
  81.7527113  56.9702530  74.8734107  82.5448405  56.6293355  74.4580406
  81.9923763  57.0797505  75.7936260  85.5502909  57.5587826  80.9518385
  85.2592775  58.4633457  80.8365051  86.1859894  57.6004353  81.6662454
  86.4759116  54.9364674  77.5419745  87.0722688  54.7120697  76.8276708
  86.5334088  54.1949420  78.1445192  91.0927427  51.3939888  73.1844679
  91.8790516  50.9759311  72.8335096  91.3566132  52.2985980  73.3526327
  96.4935854  51.3315121  74.0877657  97.2261026  50.7614338  74.3215487
  95.7375210  50.9436722  74.5284163  88.1111974  53.7542363  71.2841000
  87.7470181  53.2272984  71.9953921  88.9679090  53.3640832  71.1107485
  94.0161275  45.0436695  78.5472266  93.6844600  45.9132106  78.3233481
  93.4206888  44.7272979  79.2266296  83.9605276  53.6963038  73.9804883
  83.0355772  53.5639252  74.1882575  84.2089689  54.4757257  74.4774825
  93.9089938  49.7631781  75.6265616  93.0006815  49.6947190  75.3324377
  93.8577534  50.2403726  76.4547441  81.3214087  53.3396312  74.8148672
  81.4506468  53.5930791  75.7288084  80.6411538  53.9324020  74.4953327
  87.9830804  51.1821427  83.5700513  87.2064138  51.7415347  83.5603378
  88.6221367  51.6678210  84.0915383  95.7751584  47.9648220  77.4043490
  95.1325965  48.2580753  76.7583284  95.2706513  47.8501140  78.2096687
  93.4291748  51.7111393  68.0929349  94.3409604  51.9438780  67.9177047
  92.9201395  52.2948437  67.5304428  86.2377176  53.9906880  83.1318480
  86.9791861  54.5291924  82.8553304  85.5314162  54.6173169  83.2890032
  91.7132516  56.1336021  81.7290642  92.1215872  55.6918431  80.9845274
  90.9909777  55.5588648  81.9824835  88.0663586  51.0708628  79.1024199
  88.9124781  51.4948041  79.2458848  88.0062223  50.4142252  79.7962762
  95.9150562  57.6291649  72.8387294  95.2301600  58.0090551  72.2884328
  95.9994412  58.2386976  73.5719242  91.2163031  48.7312996  80.7605372
  90.9723963  49.4855057  80.2239648  91.4922962  49.1098344  81.5952619
  93.1701494  55.2751608  79.4382638  93.3818389  55.9183368  78.7617019
  93.1231242  54.4413925  78.9704568  90.7727723  47.8869429  76.3419210
  89.9112202  48.1850683  76.6335948  90.7990158  48.1039828  75.4100243
  84.4813373  55.9783101  75.6872779  85.0514730  56.4070370  75.0490263
  85.0721485  55.6965686  76.3856965  86.5258178  52.5534772  69.5582581
  87.2282222  53.0055816  70.0256507  86.1938807  51.9118591  70.1862474
  84.9738540  51.1446529  83.9333790  84.3437200  51.8262809  84.1669187
  84.8674628  51.0329610  82.9886928  80.2683512  50.8118325  74.8599714
  79.4782566  51.0675853  74.3839825  80.7594760  51.6266662  74.9651755
  94.2847322  58.1523564  77.6104995  95.1064766  57.7503751  77.3287677
  94.2809725  58.0491798  78.5621111  88.0503925  57.7007607  79.7665706
  88.1148358  58.1628014  80.6023878  87.3414849  57.0704972  79.8948016
  78.5521215  51.0648815  77.2914705  78.8029254  51.9495825  77.5572281
  79.0880764  50.8853417  76.5189797 102.3753315  54.4962312  73.9589967
 101.6217023  53.9269710  73.8033971 102.5100856  54.4624977  74.9060601
  84.2519283  45.4467294  86.2959041  83.8586228  44.8933493  86.9706685
  85.0685423  45.7577873  86.6865559  87.1687244  46.8625174  83.8879298
  87.9096957  47.4632327  83.8083760  87.4005166  46.1202811  83.3297340
  82.3128582  52.0481541  82.1657528  82.1982097  51.1466798  82.4664626
  81.4573099  52.2945238  81.8142344  89.3920419  59.9899281  83.7645028
  88.9484274  59.2035660  83.4465933  90.0537633  60.1778432  83.0988919
  84.1507541  61.5195083  78.2905707  84.7014966  61.3912146  77.5182701
  83.3119016  61.8189972  77.9400599  91.4901657  60.2702081  81.7926429
  91.4720133  61.0910962  81.3006699  92.4121577  60.1456156  82.0176571
  87.9474712  57.7846211  82.6349938  88.4803048  57.0234499  82.4049246
  87.4188793  57.4919862  83.3774092  91.1144407  42.8906276  78.1643580
  90.7708676  43.7807918  78.0882690  91.4823369  42.7007934  77.3013165
  88.6641800  47.7264588  71.7301253  87.8083397  47.3371439  71.5506892
  89.0768752  47.8056549  70.8701039  90.1940947  45.2610932  76.1292813
  89.6905743  45.2241067  75.3160618  90.4871554  46.1703674  76.1889469
  86.4383833  45.3449661  75.1358994  87.3036830  45.1492470  74.7764884
  86.5061342  45.1160013  76.0628351  96.0528963  55.6347242  68.6069188
  95.2758406  55.2958402  68.1624350  96.7320444  55.6399865  67.9324153
  90.8680992  50.7541980  68.4975796  90.5631128  51.0688129  69.3485939
  91.8211435  50.8323400  68.5403129  94.2920270  55.1081223  75.2635796
  93.6343945  55.7980485  75.3515925  95.0960670  55.4977655  75.6069782
  84.0446152  47.5751869  72.5075361  84.6189904  47.3527051  71.7748554
  84.6317134  47.6440564  73.2603963  93.1025729  53.4625596  73.3139738
  93.6157611  54.0955588  73.8161448  93.7526953  52.8626792  72.9483098
  86.3468820  44.4493118  71.2350431  85.6933232  44.1342135  70.6107046
  86.3049294  43.8268859  71.9610254  89.5806560  50.9375052  75.5598078
  88.6629121  51.1589999  75.4019766  89.9966704  51.0121362  74.7009786
  90.3641608  52.3366467  70.6900759  91.1113427  52.8487865  70.3807881
  90.6333197  52.0150520  71.5505152  92.8120445  49.3723584  72.6719548
  92.0743202  48.8600970  73.0029790  93.0647218  48.9323965  71.8602825
  92.9132072  42.1499836  73.2661317  93.2190949  41.2897199  72.9787232
  93.6384677  42.7417456  73.0660311  87.1853152  52.4453629  73.7737508
  87.2401762  51.4927465  73.6979985  86.3744354  52.6013068  74.2578807
  85.1245512  51.0630688  71.5327887  84.3113377  51.3624859  71.9393079
  85.6204506  50.6686377  72.2502369  90.7219724  51.5272513  80.3642781
  91.0769111  51.7543986  81.2237247  91.3691855  51.8590890  79.7420036
  96.4517460  54.6490949  71.0692110  96.3135359  54.8392545  70.1413299
  96.0953679  55.4110332  71.5260161  84.6159587  48.6349044  77.1489122
  85.2558966  48.4937803  76.4512085  83.7837117  48.3483557  76.7727724
  96.4786840  56.7167476  76.0803382  96.9123347  56.6242765  76.9286436
  97.1918421  56.6924976  75.4423398  81.6188203  48.6049369  71.9262109
  81.8795020  49.5194702  71.8171269  82.4405375  48.1373812  72.0758722
  83.0913128  50.0187126  79.0960933  83.7636182  49.8104488  78.4473582
  82.2642915  49.8209212  78.6566166  97.3402390  56.7591177  78.6136267
  97.5338280  57.6636987  78.8595542  97.2403008  56.2998596  79.4474852
  88.9938700  46.6449067  81.1126594  88.3466615  47.3439017  81.0191071
  89.7639716  47.0785211  81.4802842  92.4017498  56.9097919  84.1877148
  92.2503005  56.6808471  83.2707231  92.3922178  57.8668521  84.2008493
  89.1702835  54.4829832  79.1723414  90.0994895  54.6340992  78.9992381
  88.7493865  54.5713853  78.3172061  83.4940626  53.2929729  79.8563371
  83.3560424  52.5609968  80.4574910  84.4045549  53.2038629  79.5747558
  86.1222926  53.0049688  79.3447050  86.8322545  52.3642881  79.3033669
  86.0792234  53.2562583  80.2673231  94.1109705  59.9417042  82.2653629
  94.0522251  59.2576262  81.5984212  94.5129223  60.6836032  81.8134255
  84.8351860  49.9914906  81.1642690  84.2989217  49.5405645  81.8164286
  84.2468569  50.1260815  80.4213154  83.1300404  66.7578956  75.0587348
  83.3697002  67.3897480  75.7366367  82.2869600  66.4066996  75.3452708
  94.1127112  57.9056626  80.4967609  93.2253891  57.5682548  80.6194008
  94.6825663  57.1739657  80.7336374  80.5690982  49.1270914  78.2495684
  80.4849170  48.5196584  77.5146094  79.7473688  49.6179932  78.2505181
  87.6428266  62.5658078  77.4628852  87.5698437  63.3713050  77.9748157
  87.2005659  62.7650044  76.6376874  90.7414695  47.6124478  73.6165879
  91.2383395  46.8594440  73.2966949  89.9701677  47.6488794  73.0509089
  98.5944453  53.3164843  75.2584171  98.5834329  54.1989559  74.8878104
  97.7261832  52.9636394  75.0638708  90.1026949  62.4644912  79.6187011
  90.8154921  63.0992377  79.5462912  89.6116978  62.5608778  78.8027013
  87.3249664  49.7541861  73.3437564  86.9547452  49.2012901  74.0318469
  87.8208757  49.1499994  72.7912564  95.2117027  52.2113484  71.7254337
  95.6777480  53.0441476  71.6514639  95.6624528  51.7458466  72.4299595
  85.1538863  60.2139356  80.4392582  85.8548322  60.8475839  80.5921976
  84.6833978  60.5554087  79.6788221  93.1833690  44.5794071  75.7645238
  92.2696770  44.8098298  75.9327445  93.6126792  44.6632515  76.6159270
  92.9540149  52.7683963  78.2645132  92.3011599  53.0159870  77.6097585
  93.3320529  51.9548101  77.9307609  89.0027722  53.5103774  84.7511169
  88.3268359  53.4097903  85.4213544  89.8255356  53.3542988  85.2147166
  80.7506581  59.7475711  77.3723684  81.3360018  59.0019399  77.5051589
  80.5531419  60.0579667  78.2560348  75.3424235  52.3181311  76.0928128
  75.3808335  51.7844902  76.8865246  74.8364528  51.7916516  75.4739105
  87.7450505  64.8170702  78.9868785  88.2968813  64.9802323  79.7517870
  88.0856698  65.4075139  78.3148810  82.7214998  47.1645851  79.5890670
  82.7856324  48.0260682  79.1768068  82.6582118  46.5519853  78.8563028
  82.1967270  49.2368984  83.2363704  82.8239309  48.8546061  83.8501228
  81.3395189  49.0183186  83.6019397  92.5961379  59.6431959  84.8417440
  93.1401283  60.2561917  84.3472394  92.0148224  60.2011537  85.3584453
  82.5027060  49.1201410  75.1509608  81.7813646  49.7337377  75.0117081
  83.2920316  49.6559174  75.0726254  92.9453800  60.5661697  77.6012017
  91.9984136  60.4467048  77.5290344  93.2936573  59.6784195  77.6838279
  85.3053374  46.4555836  81.4250259  85.8287775  46.7018133  82.1876569
  85.0865707  47.2875871  81.0053397  83.8162478  49.0132480  69.6596862
  84.1558550  49.5418402  68.9375470  84.2634598  49.3512887  70.4355428
  86.5105919  47.3969531  79.1099930  86.1702739  46.5977344  79.5120610
  85.8044925  47.6971242  78.5376763  87.1622390  44.4818844  77.5627253
  87.9848460  44.0079322  77.4406143  87.4060454  45.2609327  78.0625939
  89.9461748  48.2152251  68.7948487  90.1625362  49.0976889  68.4937315
  89.4655815  47.8238464  68.0654129  84.6860969  51.1737964  75.3719232
  84.5405550  51.4878267  76.2643513  84.2086173  51.7922865  74.8190130
  86.5457352  48.1640512  75.4200121  86.5318921  47.2681606  75.0832419
  87.2629780  48.1711176  76.0538407  88.3983483  48.5977852  77.4653249
  88.1401261  49.5194923  77.4637579  87.8668523  48.2008287  78.1553713
  79.1606631  53.7143309  78.3106893  78.6160099  54.4903117  78.4427167
  80.0385981  54.0614113  78.1526014  85.9494248  47.0454893  70.6887691
  86.0710159  46.1171539  70.8878579  85.6596290  47.0593578  69.7766007
  88.8185438  44.7309803  73.8254411  88.8407135  44.7949136  72.8706391
  89.2353497  43.8914312  74.0194917  99.1969063  54.4665062  71.8633634
  99.6400209  53.7172388  71.4652757  98.3195573  54.4575199  71.4807366
  79.9472653  52.8413205  81.2037050  79.2054389  52.9895840  81.7901680
  79.6265398  53.1021471  80.3403799  96.2296267  58.4695109  68.8727563
  96.7547591  58.8082382  68.1476883  96.1418620  57.5342125  68.6890698
  87.8916316  62.3829183  81.0017440  88.2003442  62.1378330  81.8740139
  88.6891798  62.5875822  80.5136310  85.4335328  48.5586890  84.8977624
  85.4823483  49.4349013  84.5155393  85.9757842  48.0164283  84.3249267
  95.9190173  59.1028013  84.1778761  95.1285717  59.0852152  83.6383260
  95.6823528  59.6416307  84.9327797  96.0388048  55.9520479  81.4911489
  96.0886053  55.7870487  82.4327012  95.9301972  55.0847739  81.1009370
  93.3291811  51.9351408  82.8070796  94.2301673  51.7957872  82.5154794
  93.4039785  52.1005862  83.7468974  87.6634616  49.3118262  81.6523982
  86.7937925  49.6051828  81.3806571  87.8994096  49.8958707  82.3731246
  97.5406245  58.3717421  81.7353511  97.2491053  58.7347402  82.5716972
  96.9278376  57.6584429  81.5566843  98.7401927  55.9370301  74.2556081
  99.5748819  56.3760105  74.4193642  98.8761056  55.4608954  73.4364327
  95.7893433  53.4950036  80.2033569  96.2647555  53.6877682  79.3952420
  94.8658999  53.5509221  79.9576953  90.3673650  45.5297879  79.1689403
  90.8855594  46.2658906  78.8435891  90.0128783  45.8361872  80.0036162
  90.6186244  41.9498162  74.6890299  90.8987998  41.2821351  75.3150726
  91.4036851  42.1427257  74.1764963  94.4895102  50.3715796  78.4361875
  95.4412525  50.4713893  78.4574099  94.3198553  49.5794064  78.9459959
  92.5109482  47.4571379  78.6221275  91.9159414  47.7376392  77.9267764
  92.2259179  47.9465280  79.3938017  94.2704989  60.7260176  64.3427856
  94.1918620  60.3920040  65.2363614  95.0914656  61.2181944  64.3419328
  96.9683180  53.5921915  77.5504174  96.9359500  52.6537916  77.7363858
  97.5783804  53.6705952  76.8169999  97.1177669  50.3832959  77.5962457
  96.6016717  49.5991415  77.4092386  98.0017617  50.0551675  77.7608977
  94.7788396  44.1273974  73.5558270  94.5813217  43.8189063  74.4401602
  95.3888101  44.8535613  73.6856200 102.7859730  54.6537922  76.6910211
 103.5163118  54.3923210  77.2517914 102.1766675  53.9166644  76.7312279
 100.8675027  52.7945785  77.2884662 100.1408191  52.6601750  76.6801154
 100.4522314  53.1022613  78.0941380  88.6905204  56.5135715  85.0532035
  89.6108213  56.6914314  85.2472082  88.6554787  55.5691760  84.9011735
  77.9087369  51.7074308  73.9785310  77.5890153  50.8539616  73.6859684
  77.3620797  51.9222886  74.7343277  81.6867276  54.4236749  77.6954816
  81.9053286  55.3553857  77.7142850  82.0993050  54.0644724  78.4809620
  88.6071494  44.9304834  69.6830505  87.7972222  44.5851919  70.0585751
  89.2955911  44.6212378  70.2718116  90.5362042  44.0082881  71.3054801
  91.0893081  44.4278335  71.9644825  90.7732129  43.0818629  71.3477757
  86.5595141  49.9969955  87.0857565  86.4591868  50.9464312  87.0169656
  86.3416683  49.6688194  86.2133635  77.7775629  55.3277220  75.9478431
  77.0839100  54.9131172  75.4348386  78.5248620  55.3697756  75.3511850
  93.9140849  46.1183406  70.8133466  93.3339518  46.7768210  70.4311518
  93.6476782  45.2960751  70.4020883  92.3644416  45.5188464  73.0154786
  92.8644194  45.6304999  72.2069105  93.0080024  45.2149517  73.6555594
  86.4226411  53.4267094  85.9022627  85.9393493  54.2267454  86.1086516
  86.5087351  53.4375039  84.9490071  82.3499749  57.3171628  77.9391061
  83.3043003  57.2855571  77.8720992  82.1512273  56.8562252  78.7541287
  82.9399131  55.8872745  80.5061858  83.7592020  56.3816823  80.5296696
  83.2135939  54.9704713  80.4779426  92.6965727  48.2783497  69.8689814
  91.8091582  48.5633147  69.6510009  93.1119716  48.1177260  69.0217091
  96.0480263  48.3030018  73.5844153  96.8240654  48.7926470  73.8568770
  95.3228398  48.7288072  74.0416023  98.4852822  49.0157637  74.6418094
  99.0797313  48.7753373  73.9311402  98.5579406  48.2964768  75.2691630
  80.7049978  62.8591248  74.9561259  80.5704446  62.0991649  74.3899257
  80.2882040  63.5832148  74.4890048  92.6706751  53.7938033  70.0840104
  92.6141952  54.2506584  69.2447737  93.2235093  53.0328717  69.9062947
  96.4811557  49.5827765  70.9090224  96.2248491  49.1824400  71.7398431
  95.8564425  50.2971559  70.7840363 100.7923895  52.3223838  73.4161515
 100.2323453  52.3917027  74.1893077 100.1867398  52.1464823  72.6961011
  83.8619104  63.7560565  75.1679701  83.7451488  64.7005997  75.0658392
  83.0411550  63.4534127  75.5565500  93.4041530  54.9842814  67.3792633
  93.3490334  54.8187085  66.4381077  92.7787586  55.6918847  67.5354823
  78.1934045  50.2210878  81.2054055  78.8392909  49.7109832  81.6941281
  77.9851196  50.9579560  81.7797481  90.7187438  57.2891726  86.7046196
  91.5878597  57.4632378  86.3432831  90.2394189  58.1086143  86.5821925
  86.7137656  44.4850923  66.9577952  86.7016326  45.4292763  67.1146223
  87.6061078  44.3021068  66.6637413  84.8873618  64.4088827  78.3835630
  85.7900864  64.4412437  78.7002125  84.6610988  63.4789278  78.3981965
  90.5289775  41.0793700  71.2123888  89.7622171  40.5252186  71.3580571
  90.9400480  41.1515568  72.0738040  82.5331536  47.3678495  85.3029070
  83.3962998  47.0115300  85.5132394  81.9596947  47.0292390  85.9904474
 102.3779913  68.9980352  76.1091471 103.0158323  68.8787099  75.4054811
 102.2600756  69.9461196  76.1679423  99.1869620  68.9507780  76.0452995
  98.8488131  68.8348845  75.1573530 100.0559388  68.5498945  76.0254002
  95.0456435  70.8043256  72.0349886  94.4821300  70.7133193  71.2666174
  94.9308830  69.9843161  72.5152379  99.6689403  70.1042632  82.0039201
  99.6578043  69.7095430  81.1319705  99.8310042  69.3708704  82.5972972
  92.5920867  72.2994448  74.8734107  93.3842159  71.9585273  74.4580406
  92.8317517  72.4089423  75.7936260 100.6255994  74.4714224  67.3464351
  99.9743974  75.0568304  66.9598365 101.4200357  75.0020419  67.4059389
  94.5511621  71.5603361  67.7451486  95.3242497  71.0132348  67.6064361
  94.9037020  72.4247611  67.9565947  96.3896664  72.8879743  80.9518385
  96.0986530  73.7925374  80.8365051  97.0253648  72.9296271  81.6662454
  97.3152871  70.2656592  77.5419745  97.9116443  70.0412614  76.8276708
  97.3727842  69.5241337  78.1445192  96.8877899  67.7196027  65.3769936
  97.1403420  67.1977549  64.6153399  95.9502458  67.5562173  65.4796619
 101.9321182  66.7231806  73.1844679 102.7184271  66.3051229  72.8335096
 102.1959886  67.6277898  73.3526327 102.1031259  72.1604656  67.8833336
 101.4677092  72.2339282  68.5954240 101.7728666  72.7498255  67.2052415
 107.3329609  66.6607039  74.0877657 108.0654781  66.0906256  74.3215487
 106.5768965  66.2728639  74.5284163  96.6074188  69.6224133  67.5794310
  96.4910446  68.9469037  68.2475395  96.7176448  69.1356507  66.7626464
  98.9505729  69.0834280  71.2841000  98.5863936  68.5564901  71.9953921
  99.8072845  68.6932749  71.1107485 104.8555029  60.3728613  78.5472266
 104.5238354  61.2424024  78.3233481 104.2600643  60.0564897  79.2266296
  98.5911216  64.1124180  66.2802348  98.7585618  64.9804416  66.6472819
  98.4008385  64.2751462  65.3563638 101.3486549  72.5741159  77.9468179
 101.0487272  73.4766198  77.8383986 101.0037608  72.3073342  78.7989332
 104.7483693  65.0923699  75.6265616 103.8400570  65.0239108  75.3324377
 104.6971288  65.5695644  76.4547441  98.5700436  66.5681838  67.2649015
  98.4500062  67.0138888  68.1034495  97.8753025  66.9167155  66.7062553
  96.3307329  79.3385479  70.9139146  96.2531358  80.2893304  70.9927627
  95.7268972  78.9931352  71.5714073  98.8224558  66.5113345  83.5700513
  98.0457892  67.0707265  83.5603378  99.4615121  66.9970128  84.0915383
 106.6145339  63.2940138  77.4043490 105.9719719  63.5872671  76.7583284
 106.1100267  63.1793058  78.2096687 104.2685503  67.0403311  68.0929349
 105.1803359  67.2730697  67.9177047 103.7595150  67.6240355  67.5304428
  97.0770931  69.3198798  83.1318480  97.8185615  69.8583842  82.8553304
  96.3707916  69.9465087  83.2890032 102.5526270  71.4627939  81.7290642
 102.9609626  71.0210349  80.9845274 101.8303532  70.8880566  81.9824835
  98.9057340  66.4000545  79.1024199  99.7518536  66.8239959  79.2458848
  98.8455978  65.7434170  79.7962762 102.8755085  72.0229129  75.4842931
 102.2463947  72.1874843  74.7818998 102.4880747  72.4370739  76.2553895
 106.7544317  72.9583567  72.8387294 106.0695355  73.3382468  72.2884328
 106.8388166  73.5678894  73.5719242 102.0556786  64.0604914  80.7605372
 101.8117718  64.8146974  80.2239648 102.3316716  64.4390261  81.5952619
 104.0095248  70.6043526  79.4382638 104.2212144  71.2475286  78.7617019
 103.9624997  69.7705843  78.9704568 101.6121477  63.2161347  76.3419210
 100.7505956  63.5142600  76.6335948 101.6383912  63.4331746  75.4100243
  98.4283047  71.7603537  72.7493016  98.8921392  72.0391240  71.9597638
  98.1639845  70.8586982  72.5666106  95.3207128  71.3075019  75.6872779
  95.8908485  71.7362287  75.0490263  95.9115240  71.0257604  76.3856965
  97.3651933  67.8826690  69.5582581  98.0675976  68.3347733  70.0256507
  97.0332561  67.2410509  70.1862474  95.8132294  66.4738446  83.9333790
  95.1830955  67.1554727  84.1669187  95.7068382  66.3621528  82.9886928
 105.1241076  73.4815481  77.6104995 105.9458520  73.0795669  77.3287677
 105.1203479  73.3783716  78.5621111  98.8897680  73.0299525  79.7665706
  98.9542112  73.4919932  80.6023878  98.1808604  72.3996890  79.8948016
 113.2147069  69.8254230  73.9589967 112.4610778  69.2561628  73.8033971
 113.3494611  69.7916894  74.9060601  98.6045697  74.6967632  69.6344686
  98.4691372  75.5419168  70.0629534  99.1455510  74.8986910  68.8710620
  95.0913037  60.7759212  86.2959041  94.6979983  60.2225411  86.9706685
  95.9079177  61.0869791  86.6865559  92.0575095  72.2143070  70.2072611
  92.5699615  73.0086321  70.3578176  92.7097808  71.5169361  70.1406213
  93.8669980  75.3308827  72.2895364  94.0436608  76.2526791  72.1016348
  94.6626813  75.0167246  72.7189744  98.0080998  62.1917091  83.8879298
  98.7490711  62.7924244  83.8083760  98.2398921  61.4494729  83.3297340
  93.1522336  67.3773458  82.1657528  93.0375851  66.4758716  82.4664626
  92.2966854  67.6237155  81.8142344 100.2314174  75.3191199  83.7645028
  99.7878028  74.5327577  83.4465933 100.8931387  75.5070349  83.0988919
  94.9901295  76.8487000  78.2905707  95.5408720  76.7204064  77.5182701
  94.1512771  77.1481889  77.9400599 102.3295412  75.5993999  81.7926429
 102.3113887  76.4202880  81.3006699 103.2515332  75.4748074  82.0176571
  98.7868466  73.1138128  82.6349938  99.3196803  72.3526416  82.4049246
  98.2582547  72.8211780  83.3774092 101.9538161  58.2198194  78.1643580
 101.6102430  59.1099836  78.0882690 102.3217124  58.0299852  77.3013165
  90.0224012  70.5431725  70.9832182  90.8599234  70.9528733  70.7665889
  90.2002279  69.6031167  70.9532376 101.9188444  68.2106805  66.6716015
 101.4035067  68.9811410  66.9104402 101.6465752  67.5371941  67.2949076
  99.5035555  63.0556506  71.7301253  98.6477151  62.6663356  71.5506892
  99.9162507  63.1348467  70.8701039 101.0334701  60.5902849  76.1292813
 100.5299497  60.5532984  75.3160618 101.3265308  61.4995592  76.1889469
  97.2777587  60.6741579  75.1358994  98.1430584  60.4784388  74.7764884
  97.3455096  60.4451931  76.0628351 106.8922718  70.9639160  68.6069188
 106.1152161  70.6250319  68.1624350 107.5714199  70.9691783  67.9324153
 101.7074747  66.0833897  68.4975796 101.4024882  66.3980047  69.3485939
 102.6605189  66.1615317  68.5403129 100.1521179  72.2424121  70.1468750
  99.6242540  71.5076880  69.8341987  99.6508681  73.0198797  69.9008718
 105.1314025  70.4373141  75.2635796 104.4737699  71.1272403  75.3515925
 105.9354424  70.8269573  75.6069782 103.9419484  68.7917514  73.3139738
 104.4551365  69.4247506  73.8161448 104.5920707  68.1918709  72.9483098
  98.2973779  70.0604331  63.1503723  97.3900841  69.8293584  63.3494872
  98.7944811  69.2641950  63.3377704 101.2041858  78.7701838  66.0700409
 100.5303557  79.0733535  66.6785367 101.5907680  79.5730918  65.7205866
 100.4200314  66.2666969  75.5598078  99.5022876  66.4881916  75.4019766
 100.8360458  66.3413280  74.7009786 101.2035362  67.6658385  70.6900759
 101.9507181  68.1779782  70.3807881 101.4726952  67.3442438  71.5505152
  99.4762012  70.1616926  67.6727713  98.5673232  69.8775959  67.7700183
  99.5057096  70.5816004  66.8131020 104.7081280  73.7723515  71.4418880
 104.2543607  72.9314425  71.4984071 104.0775247  74.4084914  71.7793661
 103.6514199  64.7015501  72.6719548 102.9136956  64.1892888  73.0029790
 103.9040973  64.2615883  71.8602825 103.1514219  75.6100012  72.3768699
 103.4437193  76.1705069  71.6581064 103.6612840  75.9028573  73.1321858
 103.7525827  57.4791753  73.2661317 104.0584703  56.6189117  72.9787232
 104.4778431  58.0709374  73.0660311  98.0246906  67.7745546  73.7737508
  98.0795516  66.8219383  73.6979985  97.2138108  67.9304986  74.2578807
  99.1738100  71.7025669  65.0115791  98.7357530  70.9861528  64.5521429
  99.9148541  71.9301784  64.4500883  98.1147844  76.3880363  73.4662152
  98.0724023  76.6141209  72.5370684  99.0310543  76.1543738  73.6147953
 101.5613478  66.8564431  80.3642781 101.9162866  67.0835904  81.2237247
 102.2085609  67.1882807  79.7420036 107.2911215  69.9782867  71.0692110
 107.1529114  70.1684462  70.1413299 106.9347434  70.7402249  71.5260161
 107.3180595  72.0459394  76.0803382 107.7517101  71.9534683  76.9286436
 108.0312175  72.0216894  75.4423398  96.2313645  73.2643392  73.2624115
  97.0254244  72.7693712  73.0606689  95.5205337  72.7361255  72.8991820
 101.0508489  75.6461488  77.6136482 101.1045512  76.2152424  78.3814198
 100.1823271  75.8163373  77.2490519 108.1796144  72.0883094  78.6136267
 108.3732034  72.9928905  78.8595542 108.0796762  71.6290513  79.4474852
  99.8332455  61.9740985  81.1126594  99.1860370  62.6730934  81.0191071
 100.6033470  62.4077129  81.4802842 103.2411253  72.2389837  84.1877148
 103.0896759  72.0100389  83.2707231 103.2315932  73.1960438  84.2008493
 100.0096589  69.8121750  79.1723414 100.9388649  69.9632909  78.9992381
  99.5887619  69.9005770  78.3172061  98.8084921  73.8372414  76.9421952
  98.6696007  73.4691198  77.8147890  98.0199517  74.3520054  76.7705909
  99.4033073  78.9381511  68.2847488  99.5784829  78.4669554  69.0993111
  98.7165861  79.5647277  68.5128749 100.3590136  73.2154017  74.3310789
 100.0239969  73.1754787  75.2268439  99.8594082  72.5498733  73.8581200
 103.2949328  70.5610051  64.6047849 102.6778498  69.8356879  64.5080902
 102.8265816  71.3219411  64.2614923  96.9616681  68.3341606  79.3447050
  97.6716299  67.6934798  79.3033669  96.9185989  68.5854501  80.2673231
 104.9503459  75.2708959  82.2653629 104.8916006  74.5868180  81.5984212
 105.3522978  76.0127949  81.8134255  95.6745615  65.3206824  81.1642690
  95.1382972  64.8697562  81.8164286  95.0862323  65.4552733  80.4213154
  93.9694158  82.0870873  75.0587348  94.2090756  82.7189397  75.7366367
  93.1263355  81.7358913  75.3452708 104.9520867  73.2348543  80.4967609
 104.0647645  72.8974465  80.6194008 105.5219418  72.5031575  80.7336374
  86.6050014  69.5672635  73.8210660  87.2921054  69.2534365  73.2331676
  86.4498143  70.4714000  73.5477912  98.4822020  77.8949996  77.4628852
  98.4092192  78.7004967  77.9748157  98.0399413  78.0941962  76.6376874
  98.2711800  77.1321766  70.9731674  97.4879322  77.6743446  71.0669898
  98.9704545  77.6495745  71.3725915 101.5808450  62.9416395  73.6165879
 102.0777149  62.1886358  73.2966949 100.8095431  62.9780712  73.0509089
 109.4338207  68.6456761  75.2584171 109.4228084  69.5281476  74.8878104
 108.5655587  68.2928312  75.0638708 100.9420704  77.7936830  79.6187011
 101.6548676  78.4284295  79.5462912 100.4510732  77.8900696  78.8027013
 102.6638231  71.6988082  71.1904303 101.7294509  71.8189545  71.0209007
 102.8414899  70.7960549  70.9264312  98.1643419  65.0833778  73.3437564
  97.7941206  64.5304819  74.0318469  98.6602511  64.4791912  72.7912564
 106.0510782  67.5405402  71.7254337 106.5171234  68.3733393  71.6514639
 106.5018282  67.0750383  72.4299595  95.9932617  75.5431273  80.4392582
  96.6942077  76.1767756  80.5921976  95.5227732  75.8846005  79.6788221
 104.1187013  73.8849223  68.7240489 104.3946857  73.7705818  69.6334363
 103.2491512  73.4866708  68.6852662 104.0227445  59.9085989  75.7645238
 103.1090524  60.1390216  75.9327445 104.4520546  59.9924433  76.6159270
 103.7933903  68.0975881  78.2645132 103.1405353  68.3451788  77.6097585
 104.1714283  67.2840019  77.9307609 100.7541077  78.1335574  72.3673302
 100.9363472  77.3157230  72.8301055 101.5774063  78.3503266  71.9298192
 101.0883243  77.0603759  69.6288351 101.6171009  76.5496214  69.0158513
 101.3511462  76.7446289  70.4933884  99.8421476  68.8395692  84.7511169
  99.1662113  68.7389821  85.4213544 100.6649110  68.6834906  85.2147166
  91.5900335  75.0767628  77.3723684  92.1753772  74.3311316  77.5051589
  91.3925174  75.3871585  78.2560348  94.4438990  78.1118876  72.3886127
  93.7749366  78.5965003  71.9050167  94.3051860  78.3588096  73.3029505
  86.1817990  67.6473229  76.0928128  86.2202089  67.1136819  76.8865246
  85.6758283  67.1208434  75.4739105  98.5844259  80.1462619  78.9868785
  99.1362567  80.3094241  79.7517870  98.9250453  80.7367057  78.3148810
  93.5608752  62.4937769  79.5890670  93.6250079  63.3552600  79.1768068
  93.4975873  61.8811771  78.8563028  93.0361025  64.5660902  83.2363704
  93.6633064  64.1837979  83.8501228  92.1788944  64.3475103  83.6019397
 103.4355133  74.9723877  84.8417440 103.9795037  75.5853835  84.3472394
 102.8541978  75.5303455  85.3584453 101.7212646  78.0944595  75.9732467
 101.5963786  77.2934335  75.4643413 102.3791737  78.5890788  75.4846437
 103.7847555  75.8953615  77.6012017 102.8377890  75.7758966  77.5290344
 104.1330328  75.0076113  77.6838279  96.1447128  61.7847754  81.4250259
  96.6681530  62.0310050  82.1876569  95.9259461  62.6167789  81.0053397
 100.7893988  75.6906331  73.8016370 100.6418950  74.7623038  73.9823940
 101.6147482  75.7126422  73.3173445 104.3928110  76.5134890  74.8881242
 105.3174657  76.3077751  74.7505694 104.2243413  76.2651291  75.7970584
  97.3499673  62.7261449  79.1099930  97.0096493  61.9269262  79.5120610
  96.6438679  63.0263160  78.5376763  98.0016145  59.8110761  77.5627253
  98.8242214  59.3371239  77.4406143  98.2454208  60.5901245  78.0625939
 100.7855502  63.5444169  68.7948487 101.0019117  64.4268807  68.4937315
 100.3049569  63.1530382  68.0654129  97.3851107  63.4932430  75.4200121
  97.3712675  62.5973523  75.0832419  98.1023535  63.5003094  76.0538407
  99.2377237  63.9269770  77.4653249  98.9795015  64.8486841  77.4637579
  98.7062278  63.5300205  78.1553713 104.1823426  77.0320557  70.2443334
 104.3560304  76.4666980  69.4917186 104.6752317  77.8321452  70.0622824
  90.0000386  69.0435226  78.3106893  89.4553854  69.8195034  78.4427167
  90.8779736  69.3906031  78.1526014  99.6579193  60.0601721  73.8254411
  99.6800890  60.1241054  72.8706391 100.0747252  59.2206229  74.0194917
 110.0362817  69.7956980  71.8633634 110.4793963  69.0464305  71.4652757
 109.1589328  69.7867117  71.4807366 105.1698599  76.3487322  67.3440232
 105.8649503  76.9694014  67.5627547 105.5121749  75.4982673  67.6192610
  90.7866408  68.1705123  81.2037050  90.0448144  68.3187758  81.7901680
  90.4659152  68.4313388  80.3403799 107.0690022  73.7987027  68.8727563
 107.5941346  74.1374300  68.1476883 106.9812374  72.8634042  68.6890698
  98.7310070  77.7121101  81.0017440  99.0397197  77.4670248  81.8740139
  99.5285552  77.9167739  80.5136310  98.7530682  79.8659010  73.2322816
  98.3135673  79.3735389  73.9255673  99.5038799  79.3231978  72.9914891
  91.2323021  76.0570551  73.2347444  92.0581041  75.7574323  72.8546088
  90.8817073  75.2878174  73.6837233  96.2004555  75.4097020  75.3045118
  95.5784564  74.7467725  75.0047346  96.8709421  75.4358151  74.6218766
  89.4331626  73.9756878  74.1936378  88.5963535  73.5479052  74.0120379
  89.4055272  74.1689321  75.1307169  96.2729082  63.8878808  84.8977624
  96.3217238  64.7640930  84.5155393  96.8151596  63.3456201  84.3249267
 106.7583928  74.4319931  84.1778761 105.9679471  74.4144070  83.6383260
 106.5217282  74.9708224  84.9327797 106.8781803  71.2812397  81.4911489
 106.9279808  71.1162405  82.4327012 106.7695726  70.4139656  81.1009370
  95.7618061  73.9600943  68.7803578  95.9106182  74.6436407  68.1270251
  96.5684505  73.9406033  69.2953034 104.1685565  67.2643325  82.8070796
 105.0695428  67.1249790  82.5154794 104.2433540  67.4297780  83.7468974
  98.5028370  64.6410180  81.6523982  97.6331680  64.9343746  81.3806571
  98.7387851  65.2250625  82.3731246 108.3800000  73.7009339  81.7353511
 108.0884808  74.0639319  82.5716972 107.7672131  72.9876347  81.5566843
 109.5795682  71.2662218  74.2556081 110.4142573  71.7052023  74.4193642
 109.7154811  70.7900872  73.4364327 106.6287188  68.8241953  80.2033569
 107.1041309  69.0169600  79.3952420 105.7052753  68.8801139  79.9576953
  93.5170694  69.9866120  69.7864647  93.2716736  69.0828450  69.9844857
  93.6866609  69.9883271  68.8444125 101.2067404  60.8589797  79.1689403
 101.7249348  61.5950824  78.8435891 100.8522537  61.1653790  80.0036162
 101.4579998  57.2790079  74.6890299 101.7381752  56.6113268  75.3150726
 102.2430605  57.4719175  74.1764963  99.2613467  76.4549073  66.2515326
  98.6887434  77.0739260  65.7985798  99.8346261  77.0048435  66.7855248
 105.3288857  65.7007713  78.4361875 106.2806280  65.8005811  78.4574099
 105.1592307  64.9085982  78.9459959 103.3503236  62.7863297  78.6221275
 102.7553168  63.0668309  77.9267764 103.0652933  63.2757198  79.3938017
 102.4810727  76.7386223  67.3823908 103.4141400  76.6731785  67.5856784
 102.3933940  77.5742490  66.9238441 105.1098743  76.0552094  64.3427856
 105.0312375  75.7211957  65.2363614 105.9308410  76.5473862  64.3419328
 107.8076935  68.9213833  77.5504174 107.7753255  67.9829834  77.7363858
 108.4177558  68.9997870  76.8169999  99.6460265  67.7909886  63.5931378
 100.5919370  67.6616094  63.6619796  99.2674510  67.0524548  64.0700806
 107.9571423  65.7124877  77.5962457 107.4410472  64.9283333  77.4092386
 108.8411372  65.3843593  77.7608977 105.6182150  59.4565892  73.5558270
 105.4206971  59.1480980  74.4401602 106.2281856  60.1827531  73.6856200
 113.6253484  69.9829840  76.6910211 114.3556873  69.7215128  77.2517914
 113.0160430  69.2458562  76.7312279 111.7068782  68.1237703  77.2884662
 110.9801945  67.9893667  76.6801154 111.2916068  68.4314531  78.0941380
  99.5298958  71.8427632  85.0532035 100.4501967  72.0206231  85.2472082
  99.4948541  70.8983678  84.9011735  97.8303183  65.7159862  63.5286263
  96.9234638  65.4192975  63.6048977  98.1079164  65.4189681  62.6620550
  99.4465248  60.2596752  69.6830505  98.6365977  59.9143837  70.0585751
 100.1349665  59.9504296  70.2718116 101.3755797  59.3374799  71.3054801
 101.9286835  59.7570252  71.9644825 101.6125883  58.4110547  71.3477757
  97.3988896  65.3261873  87.0857565  97.2985623  66.2756230  87.0169656
  97.1810438  64.9980112  86.2133635  96.6001967  62.5746798  63.6698243
  97.4621131  62.9001696  63.9294060  96.7852311  61.7878294  63.1571308
  88.6169383  70.6569137  75.9478431  87.9232854  70.2423090  75.4348386
  89.3642374  70.6989674  75.3511850 104.7534604  61.4475324  70.8133466
 104.1733273  62.1060128  70.4311518 104.4870536  60.6252669  70.4020883
 103.2038170  60.8480382  73.0154786 103.7037948  60.9596916  72.2069105
 103.8473778  60.5441435  73.6555594  97.2620166  68.7559011  85.9022627
  96.7787248  69.5559372  86.1086516  97.3481105  68.7666956  84.9490071
  90.5306126  70.5887391  73.8244446  90.5076814  70.6875078  72.8726329
  90.8406762  71.4352542  74.1461612  93.1893503  72.6463546  77.9391061
  94.1436757  72.6147488  77.8720992  92.9906027  72.1854170  78.7541287
  93.7792886  71.2164662  80.5061858  94.5985775  71.7108741  80.5296696
  94.0529693  70.2996630  80.4779426 103.5359482  63.6075415  69.8689814
 102.6485337  63.8925065  69.6510009 103.9513471  63.4469178  69.0217091
 106.8874018  63.6321935  73.5844153 107.6634408  64.1218388  73.8568770
 106.1622152  64.0579990  74.0416023 109.3246577  64.3449555  74.6418094
 109.9191067  64.1045291  73.9311402 109.3973160  63.6256685  75.2691630
  91.5443732  78.1883166  74.9561259  91.4098200  77.4283567  74.3899257
  91.1275794  78.9124066  74.4890048 102.6802695  73.3720089  63.9637834
 103.3838545  73.5770092  64.5795490 101.9565344  73.9396851  64.2286917
 103.5100506  69.1229950  70.0840104 103.4535707  69.5798502  69.2447737
 104.0628848  68.3620635  69.9062947 107.3205311  64.9119682  70.9090224
 107.0642246  64.5116318  71.7398431 106.6958179  65.6263476  70.7840363
 111.6317649  67.6515756  73.4161515 111.0717207  67.7208945  74.1893077
 111.0261153  67.4756740  72.6961011  94.7012858  79.0852483  75.1679701
  94.5845242  80.0297915  75.0658392  93.8805304  78.7826044  75.5565500
 104.5889393  73.8102618  66.0136294 105.4234997  73.3783817  65.8313769
 104.4273736  73.6384632  66.9413188 104.2435285  70.3134732  67.3792633
 104.1884089  70.1479003  66.4381077 103.6181340  71.0210765  67.5354823
  89.0327800  65.5502796  81.2054055  89.6786663  65.0401750  81.6941281
  88.8244951  66.2871478  81.7797481 101.5581192  72.6183644  86.7046196
 102.4272352  72.7924296  86.3432831 101.0787943  73.4378060  86.5821925
  97.5531410  59.8142841  66.9577952  97.5410080  60.7584681  67.1146223
  98.4454832  59.6312986  66.6637413  95.7267372  79.7380745  78.3835630
  96.6294619  79.7704355  78.7002125  95.5004742  78.8081196  78.3981965
  97.4820974  78.4911731  75.0445708  96.5316605  78.4913593  74.9310081
  97.7853460  77.7444466  74.5281743 101.3683530  56.4085617  71.2123888
 100.6015926  55.8544104  71.3580571 101.7794235  56.4807486  72.0738040
  93.3725291  62.6970413  85.3029070  94.2356752  62.3407218  85.5132394
  92.7990701  62.3584308  85.9904474 113.2173668  84.3272270  76.1091471
 113.8552078  84.2079017  75.4054811 113.0994511  85.2753113  76.1679423
 110.0263374  84.2799698  76.0452995 109.6881886  84.1640762  75.1573530
 110.8953142  83.8790863  76.0254002 105.8850190  86.1335174  72.0349886
 105.3215055  86.0425111  71.2666174 105.7702585  85.3135078  72.5152379
 110.5083157  85.4334549  82.0039201 110.4971798  85.0387348  81.1319705
 110.6703796  84.7000622  82.5972972 103.4314622  87.6286366  74.8734107
 104.2235914  87.2877190  74.4580406 103.6711272  87.7381341  75.7936260
 111.4649748  89.8006142  67.3464351 110.8137728  90.3860222  66.9598365
 112.2594111  90.3312337  67.4059389 105.3905376  86.8895279  67.7451486
 106.1636252  86.3424266  67.6064361 105.7430774  87.7539528  67.9565947
 107.2290418  88.2171661  80.9518385 106.9380284  89.1217292  80.8365051
 107.8647403  88.2588189  81.6662454 108.1546625  85.5948510  77.5419745
 108.7510197  85.3704532  76.8276708 108.2121597  84.8533255  78.1445192
 107.7271653  83.0487945  65.3769936 107.9797174  82.5269466  64.6153399
 106.7896212  82.8854090  65.4796619 112.7714936  82.0523723  73.1844679
 113.5578025  81.6343147  72.8335096 113.0353641  82.9569816  73.3526327
 112.9425014  87.4896574  67.8833336 112.3070847  87.5631200  68.5954240
 112.6122420  88.0790172  67.2052415 118.1723363  81.9898957  74.0877657
 118.9048535  81.4198173  74.3215487 117.4162719  81.6020557  74.5284163
 107.4467942  84.9516051  67.5794310 107.3304200  84.2760954  68.2475395
 107.5570202  84.4648425  66.7626464 109.7899483  84.4126198  71.2841000
 109.4257690  83.8856819  71.9953921 110.6466599  84.0224667  71.1107485
 115.6948784  75.7020531  78.5472266 115.3632108  76.5715942  78.3233481
 115.0994397  75.3856815  79.2266296 109.4304970  79.4416098  66.2802348
 109.5979372  80.3096334  66.6472819 109.2402139  79.6043379  65.3563638
 112.1880303  87.9033077  77.9468179 111.8881026  88.8058115  77.8383986
 111.8431363  87.6365260  78.7989332 105.6392785  84.3546873  73.9804883
 104.7143281  84.2223088  74.1882575 105.8877198  85.1341093  74.4774825
 115.5877447  80.4215617  75.6265616 114.6794324  80.3531025  75.3324377
 115.5365043  80.8987562  76.4547441 109.4094191  81.8973755  67.2649015
 109.2893816  82.3430806  68.1034495 108.7146779  82.2459073  66.7062553
 103.0001596  83.9980147  74.8148672 103.1293977  84.2514626  75.7288084
 102.3199047  84.5907855  74.4953327 107.1701083  94.6677397  70.9139146
 107.0925113  95.6185222  70.9927627 106.5662727  94.3223269  71.5714073
 109.6618313  81.8405262  83.5700513 108.8851647  82.3999183  83.5603378
 110.3008876  82.3262045  84.0915383 117.4539093  78.6232055  77.4043490
 116.8113474  78.9164588  76.7583284 116.9494022  78.5084976  78.2096687
 115.1079257  82.3695228  68.0929349 116.0197113  82.6022615  67.9177047
 114.5988904  82.9532273  67.5304428 107.9164685  84.6490716  83.1318480
 108.6579369  85.1875760  82.8553304 107.2101671  85.2757005  83.2890032
 113.3920025  86.7919856  81.7290642 113.8003381  86.3502267  80.9845274
 112.6697286  86.2172484  81.9824835 109.7451095  81.7292463  79.1024199
 110.5912290  82.1531877  79.2458848 109.6849732  81.0726087  79.7962762
 113.7148839  87.3521047  75.4842931 113.0857702  87.5166761  74.7818998
 113.3274501  87.7662656  76.2553895 117.5938071  88.2875485  72.8387294
 116.9089109  88.6674386  72.2884328 117.6781921  88.8970811  73.5719242
 112.8950540  79.3896831  80.7605372 112.6511472  80.1438892  80.2239648
 113.1710471  79.7682179  81.5952619 114.8489003  85.9335444  79.4382638
 115.0605898  86.5767204  78.7617019 114.8018751  85.0997760  78.9704568
 112.4515232  78.5453264  76.3419210 111.5899711  78.8434518  76.6335948
 112.4777667  78.7623663  75.4100243 109.2676801  87.0895455  72.7493016
 109.7315147  87.3683158  71.9597638 109.0033599  86.1878900  72.5666106
 106.1600882  86.6366937  75.6872779 106.7302239  87.0654205  75.0490263
 106.7508994  86.3549521  76.3856965 108.2045687  83.2118607  69.5582581
 108.9069731  83.6639651  70.0256507 107.8726316  82.5702426  70.1862474
 106.6526049  81.8030364  83.9333790 106.0224709  82.4846645  84.1669187
 106.5462137  81.6913446  82.9886928 101.9471021  81.4702160  74.8599714
 101.1570075  81.7259689  74.3839825 102.4382269  82.2850498  74.9651755
 115.9634831  88.8107399  77.6104995 116.7852275  88.4087586  77.3287677
 115.9597234  88.7075633  78.5621111 103.8985767  81.8346739  71.8183191
 103.1016930  81.9465433  72.3366687 103.6711359  82.1733391  70.9524082
 109.7291434  88.3591442  79.7665706 109.7935867  88.8211850  80.6023878
 109.0202358  87.7288807  79.8948016 100.2308724  81.7232650  77.2914705
 100.4816763  82.6079660  77.5572281 100.7668273  81.5437252  76.5189797
 109.4439452  90.0259550  69.6344686 109.3085127  90.8711086  70.0629534
 109.9849264  90.2278828  68.8710620 105.9306792  76.1051130  86.2959041
 105.5373737  75.5517328  86.9706685 106.7472932  76.4161708  86.6865559
 102.8968849  87.5434988  70.2072611 103.4093370  88.3378238  70.3578176
 103.5491562  86.8461278  70.1406213 104.7063734  90.6600744  72.2895364
 104.8830362  91.5818709  72.1016348 105.5020568  90.3459163  72.7189744
 108.8474753  77.5209009  83.8879298 109.5884466  78.1216162  83.8083760
 109.0792675  76.7786647  83.3297340 103.9916091  82.7065376  82.1657528
 103.8769606  81.8050633  82.4664626 103.1360608  82.9529073  81.8142344
 111.0707928  90.6483116  83.7645028 110.6271783  89.8619495  83.4465933
 111.7325142  90.8362267  83.0988919 105.8295050  92.1778918  78.2905707
 106.3802475  92.0495981  77.5182701 104.9906525  92.4773807  77.9400599
 113.1689166  90.9285916  81.7926429 113.1507642  91.7494797  81.3006699
 114.0909086  90.8039992  82.0176571 109.6262221  88.4430046  82.6349938
 110.1590557  87.6818334  82.4049246 109.0976302  88.1503698  83.3774092
 112.7931916  73.5490112  78.1643580 112.4496185  74.4391754  78.0882690
 113.1610878  73.3591769  77.3013165 100.8617766  85.8723642  70.9832182
 101.6992988  86.2820651  70.7665889 101.0396034  84.9323084  70.9532376
 112.7582198  83.5398723  66.6716015 112.2428822  84.3103328  66.9104402
 112.4859507  82.8663859  67.2949076 110.3429309  78.3848424  71.7301253
 109.4870906  77.9955274  71.5506892 110.7556261  78.4640385  70.8701039
 111.8728456  75.9194767  76.1292813 111.3693251  75.8824902  75.3160618
 112.1659063  76.8287510  76.1889469 108.1171342  76.0033497  75.1358994
 108.9824339  75.8076305  74.7764884 108.1848851  75.7743848  76.0628351
 117.7316472  86.2931078  68.6069188 116.9545915  85.9542237  68.1624350
 118.4107953  86.2983701  67.9324153 112.5468501  81.4125815  68.4975796
 112.2418637  81.7271964  69.3485939 113.4998944  81.4907235  68.5403129
 110.9914933  87.5716038  70.1468750 110.4636295  86.8368798  69.8341987
 110.4902436  88.3490715  69.9008718 115.9707779  85.7665059  75.2635796
 115.3131454  86.4564320  75.3515925 116.7748178  86.1561491  75.6069782
 105.7233661  78.2335705  72.5075361 106.2977413  78.0110886  71.7748554
 106.3104643  78.3024399  73.2603963 114.7813238  84.1209432  73.3139738
 115.2945120  84.7539423  73.8161448 115.4314462  83.5210627  72.9483098
 106.0503248  80.2640166  66.5271247 105.2140560  80.6014852  66.8480521
 105.9108018  80.1289145  65.5898384 108.0256329  75.1076954  71.2350431
 107.3720741  74.7925971  70.6107046 107.9836803  74.4852694  71.9610254
 109.1367533  85.3896249  63.1503723 108.2294595  85.1585502  63.3494872
 109.6338565  84.5933868  63.3377704 112.0435612  94.0993756  66.0700409
 111.3697311  94.4025453  66.6785367 112.4301434  94.9022836  65.7205866
 111.2594069  81.5958887  75.5598078 110.3416630  81.8173834  75.4019766
 111.6754213  81.6705198  74.7009786 112.0429117  82.9950303  70.6900759
 112.7900936  83.5071700  70.3807881 112.3120706  82.6734355  71.5505152
 110.3155767  85.4908843  67.6727713 109.4066986  85.2067876  67.7700183
 110.3450851  85.9107922  66.8131020 115.5475034  89.1015433  71.4418880
 115.0937361  88.2606343  71.4984071 114.9169001  89.7376831  71.7793661
 114.4907954  80.0307419  72.6719548 113.7530711  79.5184805  73.0029790
 114.7434727  79.5907801  71.8602825 113.9907974  90.9391930  72.3768699
 114.2830948  91.4996987  71.6581064 114.5006594  91.2320491  73.1321858
 114.5919581  72.8083671  73.2661317 114.8978458  71.9481034  72.9787232
 115.3172186  73.4001291  73.0660311 100.8843937  83.2114358  71.6542915
 100.6868337  82.6183718  70.9293982 100.3290601  82.9066568  72.3718854
 108.8640661  83.1037464  73.7737508 108.9189271  82.1511300  73.6979985
 108.0531863  83.2596903  74.2578807 110.0131855  87.0317587  65.0115791
 109.5751285  86.3153446  64.5521429 110.7542296  87.2593702  64.4500883
 106.8033021  81.7214524  71.5327887 105.9900886  82.0208694  71.9393079
 107.2992015  81.3270213  72.2502369 108.9541599  91.7172281  73.4662152
 108.9117778  91.9433127  72.5370684 109.8704298  91.4835655  73.6147953
 112.4007233  82.1856348  80.3642781 112.7556620  82.4127821  81.2237247
 113.0479364  82.5174725  79.7420036 118.1304969  85.3074784  71.0692110
 117.9922868  85.4976380  70.1413299 117.7741188  86.0694167  71.5260161
 106.2947096  79.2932879  77.1489122 106.9346475  79.1521638  76.4512085
 105.4624626  79.0067393  76.7727724 118.1574349  87.3751311  76.0803382
 118.5910856  87.2826600  76.9286436 118.8705930  87.3508812  75.4423398
 107.0707400  88.5935310  73.2624115 107.8647998  88.0985630  73.0606689
 106.3599092  88.0653173  72.8991820 111.8902244  90.9753405  77.6136482
 111.9439266  91.5444342  78.3814198 111.0217025  91.1455290  77.2490519
 103.3790163  82.7378392  69.3383867 102.4487751  82.6762847  69.5553829
 103.4747635  82.2154344  68.5420508 103.2975712  79.2633204  71.9262109
 103.5582529  80.1778538  71.8171269 104.1192884  78.7957647  72.0758722
 104.7700637  80.6770962  79.0960933 105.4423691  80.4688324  78.4473582
 103.9430424  80.4793048  78.6566166 119.0189899  87.4175012  78.6136267
 119.2125789  88.3220822  78.8595542 118.9190517  86.9582431  79.4474852
 110.6726209  77.3032902  81.1126594 110.0254124  78.0022852  81.0191071
 111.4427225  77.7369046  81.4802842 114.0805007  87.5681755  84.1877148
 113.9290514  87.3392306  83.2707231 114.0709687  88.5252356  84.2008493
 110.8490344  85.1413667  79.1723414 111.7782404  85.2924827  78.9992381
 110.4281374  85.2297688  78.3172061 109.6478675  89.1664332  76.9421952
 109.5089761  88.7983116  77.8147890 108.8593272  89.6811971  76.7705909
 110.2426827  94.2673428  68.2847488 110.4178583  93.7961471  69.0993111
 109.5559615  94.8939194  68.5128749 111.1983891  88.5445934  74.3310789
 110.8633723  88.5046704  75.2268439 110.6987836  87.8790650  73.8581200
 105.1728135  83.9513564  79.8563371 105.0347933  83.2193803  80.4574910
 106.0833058  83.8622465  79.5747558 114.1343082  85.8901969  64.6047849
 113.5172253  85.1648797  64.5080902 113.6659571  86.6511329  64.2614923
 107.8010435  83.6633524  79.3447050 108.5110054  83.0226716  79.3033669
 107.7579743  83.9146419  80.2673231 115.7897214  90.6000877  82.2653629
 115.7309760  89.9160097  81.5984212 116.1916732  91.3419867  81.8134255
 106.5139369  80.6498742  81.1642690 105.9776726  80.1989480  81.8164286
 105.9256078  80.7844651  80.4213154 104.8087913  97.4162791  75.0587348
 105.0484511  98.0481315  75.7366367 103.9657109  97.0650831  75.3452708
 105.9241628  80.1087393  63.7269153 105.0471095  79.9876194  63.3631400
 106.3999381  79.3173471  63.4748042 115.7914621  88.5640461  80.4967609
 114.9041400  88.2266383  80.6194008 116.3613172  87.8323492  80.7336374
  97.4443768  84.8964553  73.8210660  98.1314808  84.5826283  73.2331676
  97.2891897  85.8005917  73.5477912 102.2478490  79.7854749  78.2495684
 102.1636679  79.1780419  77.5146094 101.4261197  80.2763768  78.2505181
 109.3215775  93.2241913  77.4628852 109.2485946  94.0296885  77.9748157
 108.8793168  93.4233879  76.6376874 109.1105554  92.4613683  70.9731674
 108.3273076  93.0035364  71.0669898 109.8098299  92.9787663  71.3725915
 112.4202204  78.2708313  73.6165879 112.9170904  77.5178275  73.2966949
 111.6489186  78.3072630  73.0509089 120.2731962  83.9748678  75.2584171
 120.2621838  84.8573394  74.8878104 119.4049341  83.6220229  75.0638708
 111.7814458  93.1228747  79.6187011 112.4942430  93.7576212  79.5462912
 111.2904487  93.2192613  78.8027013 113.5031985  87.0280000  71.1904303
 112.5688264  87.1481463  71.0209007 113.6808654  86.1252467  70.9264312
 109.0037173  80.4125696  73.3437564 108.6334961  79.8596736  74.0318469
 109.4996266  79.8083829  72.7912564 116.8904536  82.8697319  71.7254337
 117.3564989  83.7025311  71.6514639 117.3412037  82.4042301  72.4299595
 106.8326372  90.8723191  80.4392582 107.5335831  91.5059674  80.5921976
 106.3621487  91.2137922  79.6788221 114.9580768  89.2141141  68.7240489
 115.2340611  89.0997735  69.6334363 114.0885266  88.8158626  68.6852662
 114.8621199  75.2377906  75.7645238 113.9484279  75.4682133  75.9327445
 115.2914301  75.3216350  76.6159270 114.6327658  83.4267798  78.2645132
 113.9799108  83.6743706  77.6097585 115.0108038  82.6131937  77.9307609
 111.5934832  93.4627492  72.3673302 111.7757226  92.6449147  72.8301055
 112.4167818  93.6795184  71.9298192 111.9276997  92.3895677  69.6288351
 112.4564763  91.8788131  69.0158513 112.1905217  92.0738207  70.4933884
 110.6815231  84.1687609  84.7511169 110.0055868  84.0681739  85.4213544
 111.5042865  84.0126823  85.2147166 102.4294090  90.4059546  77.3723684
 103.0147527  89.6603234  77.5051589 102.2318928  90.7163503  78.2560348
 105.2832745  93.4410793  72.3886127 104.6143120  93.9256921  71.9050167
 105.1445615  93.6880014  73.3029505  97.0211744  82.9765146  76.0928128
  97.0595844  82.4428737  76.8865246  96.5152037  82.4500352  75.4739105
 109.4238014  95.4754537  78.9868785 109.9756322  95.6386158  79.7517870
 109.7644207  96.0658975  78.3148810 104.4002507  77.8229687  79.5890670
 104.4643833  78.6844518  79.1768068 104.3369627  77.2103688  78.8563028
 103.8754779  79.8952819  83.2363704 104.5026818  79.5129897  83.8501228
 103.0182698  79.6767021  83.6019397 114.2748888  90.3015794  84.8417440
 114.8188792  90.9145753  84.3472394 113.6935733  90.8595373  85.3584453
 100.6520322  81.7029248  69.1682059 100.9473763  80.7939927  69.1149113
  99.7508358  81.6816988  68.8463061 112.5606401  93.4236512  75.9732467
 112.4357540  92.6226252  75.4643413 113.2185492  93.9182706  75.4846437
 104.1814569  79.7785245  75.1509608 103.4601155  80.3921213  75.0117081
 104.9707825  80.3143010  75.0726254 114.6241309  91.2245533  77.6012017
 113.6771645  91.1050884  77.5290344 114.9724082  90.3368031  77.6838279
 106.9840883  77.1139671  81.4250259 107.5075284  77.3601968  82.1876569
 106.7653216  77.9459706  81.0053397 102.3808164  79.3843346  69.2921384
 102.0520870  78.5040725  69.1096490 102.7347534  79.3291015  70.1797773
 111.6287743  91.0198249  73.8016370 111.4812705  90.0914956  73.9823940
 112.4541236  91.0418339  73.3173445 105.4949987  79.6716316  69.6596862
 105.8346059  80.2002237  68.9375470 105.9422107  80.0096722  70.4355428
 115.2321864  91.8426807  74.8881242 116.1568412  91.6369669  74.7505694
 115.0637168  91.5943209  75.7970584 108.1893428  78.0553367  79.1099930
 107.8490248  77.2561180  79.5120610 107.4832434  78.3555077  78.5376763
 108.8409899  75.1402679  77.5627253 109.6635969  74.6663157  77.4406143
 109.0847963  75.9193163  78.0625939 107.4818134  78.1690937  67.8590155
 108.2026496  78.5472190  67.3553871 106.8583438  78.8879814  67.9625133
 111.6249257  78.8736086  68.7948487 111.8412871  79.7560724  68.4937315
 111.1443324  78.4822300  68.0654129 106.3648478  81.8321800  75.3719232
 106.2193059  82.1462103  76.2643513 105.8873682  82.4506700  74.8190130
 108.2244861  78.8224348  75.4200121 108.2106430  77.9265441  75.0832419
 108.9417289  78.8295011  76.0538407 110.0770992  79.2561688  77.4653249
 109.8188770  80.1778758  77.4637579 109.5456032  78.8592122  78.1553713
 115.0217181  92.3612475  70.2443334 115.1954058  91.7958897  69.4917186
 115.5146072  93.1613370  70.0622824 100.8394140  84.3727144  78.3106893
 100.2947608  85.1486952  78.4427167 101.7173490  84.7197948  78.1526014
 107.6281757  77.7038728  70.6887691 107.7497668  76.7755374  70.8878579
 107.3383799  77.7177414  69.7766007 110.4972947  75.3893638  73.8254411
 110.5194644  75.4532971  72.8706391 110.9141006  74.5498147  74.0194917
 120.8756572  85.1248898  71.8633634 121.3187718  84.3756223  71.4652757
 119.9983082  85.1159034  71.4807366 116.0092353  91.6779239  67.3440232
 116.7043258  92.2985932  67.5627547 116.3515503  90.8274591  67.6192610
 101.6260162  83.4997040  81.2037050 100.8841898  83.6479676  81.7901680
 101.3052907  83.7605306  80.3403799 117.9083776  89.1278945  68.8727563
 118.4335100  89.4666218  68.1476883 117.8206129  88.1925960  68.6890698
 109.5703825  93.0413018  81.0017440 109.8790951  92.7962165  81.8740139
 110.3679307  93.2459657  80.5136310 109.5924437  95.1950928  73.2322816
 109.1529427  94.7027307  73.9255673 110.3432554  94.6523896  72.9914891
 102.0716776  91.3862469  73.2347444 102.8974796  91.0866241  72.8546088
 101.7210828  90.6170091  73.6837233 107.0398309  90.7388937  75.3045118
 106.4178318  90.0759642  75.0047346 107.7103176  90.7650069  74.6218766
 100.2725381  89.3048795  74.1936378  99.4357289  88.8770970  74.0120379
 100.2449026  89.4981239  75.1307169 107.1122837  79.2170725  84.8977624
 107.1610992  80.0932848  84.5155393 107.6545351  78.6748118  84.3249267
 117.5977682  89.7611848  84.1778761 116.8073226  89.7435987  83.6383260
 117.3611037  90.3000142  84.9327797 117.7175557  86.6104315  81.4911489
 117.7673562  86.4454322  82.4327012 117.6089481  85.7431574  81.1009370
 106.6011816  89.2892861  68.7803578 106.7499936  89.9728325  68.1270251
 107.4078259  89.2697951  69.2953034 115.0079320  82.5935243  82.8070796
 115.9089182  82.4541708  82.5154794 115.0827294  82.7589698  83.7468974
 109.3422125  79.9702098  81.6523982 108.4725434  80.2635664  81.3806571
 109.5781605  80.5542543  82.3731246 119.2193754  89.0301256  81.7353511
 118.9278562  89.3931237  82.5716972 118.6065885  88.3168265  81.5566843
 120.4189436  86.5954136  74.2556081 121.2536328  87.0343940  74.4193642
 120.5548565  86.1192789  73.4364327 117.4680942  84.1533871  80.2033569
 117.9435064  84.3461517  79.3952420 116.5446508  84.2093057  79.9576953
 104.3564449  85.3158038  69.7864647 104.1110491  84.4120368  69.9844857
 104.5260363  85.3175189  68.8444125 112.0461159  76.1881715  79.1689403
 112.5643103  76.9242741  78.8435891 111.6916292  76.4945708  80.0036162
 103.6260096  81.0486396  67.2850809 102.9329341  81.1230751  66.6290845
 103.3811848  80.2846739  67.8072326 112.2973753  72.6081997  74.6890299
 112.5775507  71.9405186  75.3150726 113.0824360  72.8011093  74.1764963
 110.1007221  91.7840991  66.2515326 109.5281189  92.4031178  65.7985798
 110.6740015  92.3340353  66.7855248 116.1682611  81.0299631  78.4361875
 117.1200034  81.1297729  78.4574099 115.9986062  80.2377900  78.9459959
 114.1896991  78.1155214  78.6221275 113.5946923  78.3960227  77.9267764
 113.9046688  78.6049115  79.3938017 113.3204481  92.0678141  67.3823908
 114.2535154  92.0023703  67.5856784 113.2327694  92.9034408  66.9238441
 115.9492498  91.3844011  64.3427856 115.8706129  91.0503875  65.2363614
 116.7702165  91.8765779  64.3419328 118.6470689  84.2505751  77.5504174
 118.6147009  83.3121752  77.7363858 119.2571313  84.3289787  76.8169999
 110.4854020  83.1201804  63.5931378 111.4313125  82.9908012  63.6619796
 110.1068265  82.3816466  64.0700806 118.7965178  81.0416794  77.5962457
 118.2804226  80.2575251  77.4092386 119.6805126  80.7135511  77.7608977
 116.4575905  74.7857810  73.5558270 116.2600726  74.4772898  74.4401602
 117.0675610  75.5119449  73.6856200 110.3692713  87.1719550  85.0532035
 111.2895722  87.3498149  85.2472082 110.3342296  86.2275595  84.9011735
 108.6696937  81.0451780  63.5286263 107.7628393  80.7484893  63.6048977
 108.9472918  80.7481598  62.6620550  99.5874878  82.3658144  73.9785310
  99.2677662  81.5123452  73.6859684  99.0408306  82.5806722  74.7343277
 103.3654785  85.0820585  77.6954816 103.5840795  86.0137692  77.7142850
 103.7780559  84.7228559  78.4809620 110.2859003  75.5888670  69.6830505
 109.4759731  75.2435755  70.0585751 110.9743420  75.2796214  70.2718116
 112.2149551  74.6666717  71.3054801 112.7680590  75.0862170  71.9644825
 112.4519638  73.7402465  71.3477757 108.2382650  80.6553790  87.0857565
 108.1379377  81.6048147  87.0169656 108.0204192  80.3272029  86.2133635
 107.4395722  77.9038715  63.6698243 108.3014886  78.2293614  63.9294060
 107.6246066  77.1170211  63.1571308  99.4563138  85.9861055  75.9478431
  98.7626609  85.5715008  75.4348386 100.2036129  86.0281592  75.3511850
 115.5928358  76.7767242  70.8133466 115.0127027  77.4352046  70.4311518
 115.3264291  75.9544586  70.4020883 114.0431925  76.1772300  73.0154786
 114.5431703  76.2888834  72.2069105 114.6867533  75.8733352  73.6555594
 108.1013920  84.0850929  85.9022627 107.6181002  84.8851289  86.1086516
 108.1874859  84.0958874  84.9490071 101.3699880  85.9179309  73.8244446
 101.3470568  86.0166996  72.8726329 101.6800517  86.7644460  74.1461612
 104.0287258  87.9755464  77.9391061 104.9830511  87.9439406  77.8720992
 103.8299782  87.5146088  78.7541287 104.6186640  86.5456580  80.5061858
 105.4379529  87.0400659  80.5296696 104.8923448  85.6288548  80.4779426
 114.3753236  78.9367332  69.8689814 113.4879091  79.2216983  69.6510009
 114.7907225  78.7761096  69.0217091 117.7267772  78.9613853  73.5844153
 118.5028163  79.4510306  73.8568770 117.0015907  79.3871907  74.0416023
 120.1640331  79.6741472  74.6418094 120.7584822  79.4337208  73.9311402
 120.2366915  78.9548603  75.2691630 102.3837487  93.5175083  74.9561259
 102.2491955  92.7575484  74.3899257 101.9669549  94.2415983  74.4890048
 113.5196450  88.7012007  63.9637834 114.2232300  88.9062009  64.5795490
 112.7959098  89.2688769  64.2286917 114.3494260  84.4521868  70.0840104
 114.2929461  84.9090420  69.2447737 114.9022602  83.6912553  69.9062947
 118.1599066  80.2411600  70.9090224 117.9036000  79.8408236  71.7398431
 117.5351934  80.9555394  70.7840363 122.4711404  82.9807673  73.4161515
 121.9110962  83.0500863  74.1893077 121.8654907  82.8048658  72.6961011
 105.5406613  94.4144400  75.1679701 105.4238997  95.3589833  75.0658392
 104.7199059  94.1117962  75.5565500 115.4283147  89.1394536  66.0136294
 116.2628751  88.7075735  65.8313769 115.2667490  88.9676550  66.9413188
 115.0829039  85.6426649  67.3792633 115.0277843  85.4770921  66.4381077
 114.4575095  86.3502682  67.5354823  99.8721554  80.8794714  81.2054055
 100.5180418  80.3693668  81.6941281  99.6638705  81.6163395  81.7797481
 112.3974946  87.9475561  86.7046196 113.2666106  88.1216214  86.3432831
 111.9181698  88.7669978  86.5821925 108.3925165  75.1434758  66.9577952
 108.3803835  76.0876598  67.1146223 109.2848587  74.9604904  66.6637413
 106.5661127  95.0672662  78.3835630 107.4688373  95.0996273  78.7002125
 106.3398497  94.1373113  78.3981965 108.3214729  93.8203649  75.0445708
 107.3710360  93.8205510  74.9310081 108.6247215  93.0736383  74.5281743
 112.2077284  71.7377535  71.2123888 111.4409680  71.1836022  71.3580571
 112.6187989  71.8099404  72.0738040 104.2119045  78.0262331  85.3029070
 105.0750507  77.6699136  85.5132394 103.6384456  77.6876226  85.9904474
 120.8657129  99.6091615  76.0452995 120.5275640  99.4932680  75.1573530
 121.7346897  99.2082780  76.0254002 116.7243944 101.4627092  72.0349886
 116.1608809 101.3717029  71.2666174 116.6096339 100.6426996  72.5152379
 121.3476912 100.7626467  82.0039201 121.3365552 100.3679265  81.1319705
 121.5097551 100.0292540  82.5972972 114.2708376 102.9578283  74.8734107
 115.0629668 102.6169108  74.4580406 114.5105026 103.0673258  75.7936260
 116.2299130 102.2187197  67.7451486 117.0030006 101.6716184  67.6064361
 116.5824529 103.0831446  67.9565947 118.0684173 103.5463579  80.9518385
 117.7774039 104.4509210  80.8365051 118.7041157 103.5880106  81.6662454
 118.9940380 100.9240427  77.5419745 119.5903952 100.6996450  76.8276708
 119.0515351 100.1825173  78.1445192 118.5665408  98.3779863  65.3769936
 118.8190929  97.8561384  64.6153399 117.6289967  98.2146008  65.4796619
 118.2861697 100.2807969  67.5794310 118.1697955  99.6052872  68.2475395
 118.3963957  99.7940343  66.7626464 120.6293238  99.7418116  71.2841000
 120.2651445  99.2148737  71.9953921 121.4860353  99.3516585  71.1107485
 120.2698725  94.7708015  66.2802348 120.4373127  95.6388252  66.6472819
 120.0795894  94.9335297  65.3563638 116.4786539  99.6838791  73.9804883
 115.5537036  99.5515005  74.1882575 116.7270952 100.4633010  74.4774825
 120.2487945  97.2265673  67.2649015 120.1287571  97.6722724  68.1034495
 119.5540534  97.5750991  66.7062553 113.8395350  99.3272065  74.8148672
 113.9687731  99.5806544  75.7288084 113.1592802  99.9199773  74.4953327
 120.5012067  97.1697180  83.5700513 119.7245401  97.7291100  83.5603378
 121.1402630  97.6553963  84.0915383 118.7558440  99.9782633  83.1318480
 119.4973124 100.5167677  82.8553304 118.0495425 100.6048922  83.2890032
 120.5844849  97.0584381  79.1024199 121.4306044  97.4823794  79.2458848
 120.5243487  96.4018005  79.7962762 120.1070556 102.4187373  72.7493016
 120.5708901 102.6975076  71.9597638 119.8427354 101.5170817  72.5666106
 116.9994637 101.9658854  75.6872779 117.5695994 102.3946123  75.0490263
 117.5902749 101.6841439  76.3856965 119.0439442  98.5410525  69.5582581
 119.7463485  98.9931569  70.0256507 118.7120070  97.8994344  70.1862474
 117.4919803  97.1322282  83.9333790 116.8618464  97.8138562  84.1669187
 117.3855891  97.0205363  82.9886928 112.7864776  96.7994078  74.8599714
 111.9963830  97.0551606  74.3839825 113.2776023  97.6142416  74.9651755
 114.7379521  97.1638657  71.8183191 113.9410684  97.2757351  72.3366687
 114.5105113  97.5025309  70.9524082 120.5685189 103.6883360  79.7665706
 120.6329621 104.1503767  80.6023878 119.8596113 103.0580725  79.8948016
 111.0702479  97.0524568  77.2914705 111.3210517  97.9371578  77.5572281
 111.6062027  96.8729170  76.5189797 120.2833206 105.3551468  69.6344686
 120.1478881 106.2003003  70.0629534 120.8243019 105.5570745  68.8710620
 116.7700546  91.4343047  86.2959041 116.3767492  90.8809246  86.9706685
 117.5866686  91.7453626  86.6865559 113.7362604 102.8726906  70.2072611
 114.2487124 103.6670156  70.3578176 114.3885317 102.1753196  70.1406213
 115.5457489 105.9892662  72.2895364 115.7224117 106.9110627  72.1016348
 116.3414322 105.6751081  72.7189744 119.6868507  92.8500927  83.8879298
 120.4278220  93.4508080  83.8083760 119.9186430  92.1078564  83.3297340
 114.8309845  98.0357294  82.1657528 114.7163360  97.1342551  82.4664626
 113.9754363  98.2820991  81.8142344 116.6688804 107.5070836  78.2905707
 117.2196229 107.3787899  77.5182701 115.8300280 107.8065725  77.9400599
 120.4655975 103.7721964  82.6349938 120.9984312 103.0110252  82.4049246
 119.9370056 103.4795615  83.3774092 111.7011521 101.2015560  70.9832182
 112.5386743 101.6112568  70.7665889 111.8789788 100.2615002  70.9532376
 121.1823064  93.7140341  71.7301253 120.3264660  93.3247192  71.5506892
 121.5950016  93.7932302  70.8701039 118.9565096  91.3325414  75.1358994
 119.8218093  91.1368223  74.7764884 119.0242605  91.1035766  76.0628351
 121.8308688 102.9007956  70.1468750 121.3030049 102.1660716  69.8341987
 121.3296190 103.6782632  69.9008718 116.5627415  93.5627622  72.5075361
 117.1371167  93.3402804  71.7748554 117.1498398  93.6316317  73.2603963
 116.8897002  95.5932083  66.5271247 116.0534315  95.9306770  66.8480521
 116.7501772  95.4581063  65.5898384 118.8650083  90.4368871  71.2350431
 118.2114495  90.1217888  70.6107046 118.8230557  89.8144612  71.9610254
 119.9761288 100.7188166  63.1503723 119.0688350 100.4877420  63.3494872
 120.4732320  99.9225786  63.3377704 121.1549521 100.8200761  67.6727713
 120.2460741 100.5359794  67.7700183 121.1844605 101.2399840  66.8131020
 111.7237692  98.5406275  71.6542915 111.5262092  97.9475636  70.9293982
 111.1684356  98.2358485  72.3718854 119.7034415  98.4329382  73.7737508
 119.7583025  97.4803218  73.6979985 118.8925617  98.5888821  74.2578807
 120.8525609 102.3609505  65.0115791 120.4145039 101.6445364  64.5521429
 121.5936050 102.5885620  64.4500883 117.6426775  97.0506442  71.5327887
 116.8294641  97.3500612  71.9393079 118.1385770  96.6562130  72.2502369
 117.1340850  94.6224797  77.1489122 117.7740229  94.4813556  76.4512085
 116.3018381  94.3359310  76.7727724 117.9101154 103.9227227  73.2624115
 118.7041752 103.4277548  73.0606689 117.1992846 103.3945091  72.8991820
 114.2183917  98.0670309  69.3383867 113.2881506  98.0054765  69.5553829
 114.3141389  97.5446262  68.5420508 114.1369467  94.5925122  71.9262109
 114.3976284  95.5070455  71.8171269 114.9586639  94.1249565  72.0758722
 115.6094392  96.0062879  79.0960933 116.2817445  95.7980241  78.4473582
 114.7824178  95.8084965  78.6566166 121.5119964  92.6324820  81.1126594
 120.8647879  93.3314770  81.0191071 122.2820979  93.0660964  81.4802842
 120.4872430 104.4956249  76.9421952 120.3483516 104.1275034  77.8147890
 119.6987026 105.0103889  76.7705909 122.0377645 103.8737852  74.3310789
 121.7027478 103.8338622  75.2268439 121.5381591 103.2082568  73.8581200
 116.0121889  99.2805482  79.8563371 115.8741687  98.5485721  80.4574910
 116.9226813  99.1914382  79.5747558 118.6404190  98.9925441  79.3447050
 119.3503808  98.3518634  79.3033669 118.5973498  99.2438336  80.2673231
 117.3533124  95.9790659  81.1642690 116.8170481  95.5281398  81.8164286
 116.7649832  96.1136568  80.4213154 116.7635383  95.4379311  63.7269153
 115.8864849  95.3168112  63.3631400 117.2393136  94.6465389  63.4748042
 108.2837523 100.2256471  73.8210660 108.9708563  99.9118201  73.2331676
 108.1285652 101.1297835  73.5477912 113.0872245  95.1146667  78.2495684
 113.0030434  94.5072337  77.5146094 112.2654951  95.6055685  78.2505181
 119.8430928  95.7417614  73.3437564 119.4728715  95.1888654  74.0318469
 120.3390020  95.1375747  72.7912564 117.6720126 106.2015109  80.4392582
 118.3729586 106.8351592  80.5921976 117.2015241 106.5429840  79.6788221
 121.5208985  99.4979527  84.7511169 120.8449622  99.3973656  85.4213544
 122.3436619  99.3418741  85.2147166 113.2687844 105.7351464  77.3723684
 113.8541281 104.9895152  77.5051589 113.0712683 106.0455420  78.2560348
 116.1226499 108.7702711  72.3886127 115.4536875 109.2548839  71.9050167
 115.9839369 109.0171931  73.3029505 107.8605499  98.3057064  76.0928128
 107.8989598  97.7720655  76.8865246 107.3545792  97.7792269  75.4739105
 115.2396261  93.1521604  79.5890670 115.3037588  94.0136435  79.1768068
 115.1763382  92.5395606  78.8563028 114.7148534  95.2244737  83.2363704
 115.3420573  94.8421814  83.8501228 113.8576453  95.0058939  83.6019397
 111.4914077  97.0321166  69.1682059 111.7867518  96.1231844  69.1149113
 110.5902112  97.0108905  68.8463061 115.0208324  95.1077163  75.1509608
 114.2994909  95.7213130  75.0117081 115.8101579  95.6434927  75.0726254
 117.8234637  92.4431589  81.4250259 118.3469039  92.6893886  82.1876569
 117.6046970  93.2751624  81.0053397 113.2201918  94.7135264  69.2921384
 112.8914624  93.8332643  69.1096490 113.5741289  94.6582932  70.1797773
 116.3343741  95.0008233  69.6596862 116.6739814  95.5294155  68.9375470
 116.7815862  95.3388640  70.4355428 119.0287182  93.3845284  79.1099930
 118.6884002  92.5853097  79.5120610 118.3226188  93.6846995  78.5376763
 119.6803654  90.4694597  77.5627253 120.5029723  89.9955075  77.4406143
 119.9241717  91.2485080  78.0625939 118.3211888  93.4982855  67.8590155
 119.0420251  93.8764108  67.3553871 117.6977193  94.2171732  67.9625133
 117.2042233  97.1613717  75.3719232 117.0586813  97.4754020  76.2643513
 116.7267436  97.7798618  74.8190130 119.0638616  94.1516265  75.4200121
 119.0500184  93.2557359  75.0832419 119.7811044  94.1586929  76.0538407
 120.9164746  94.5853605  77.4653249 120.6582524  95.5070676  77.4637579
 120.3849787  94.1884040  78.1553713 111.6787895  99.7019062  78.3106893
 111.1341363 100.4778870  78.4427167 112.5567245 100.0489866  78.1526014
 118.4675511  93.0330646  70.6887691 118.5891423  92.1047292  70.8878579
 118.1777554  93.0469331  69.7766007 121.3366702  90.7185556  73.8254411
 121.3588399  90.7824889  72.8706391 121.7534761  89.8790065  74.0194917
 112.4653917  98.8288958  81.2037050 111.7235653  98.9771593  81.7901680
 112.1446661  99.0897224  80.3403799 112.9110530 106.7154387  73.2347444
 113.7368550 106.4158159  72.8546088 112.5604582 105.9462009  73.6837233
 117.8792064 106.0680855  75.3045118 117.2572073 105.4051560  75.0047346
 118.5496930 106.0941987  74.6218766 111.1119135 104.6340713  74.1936378
 110.2751044 104.2062887  74.0120379 111.0842781 104.8273156  75.1307169
 117.9516591  94.5462643  84.8977624 118.0004747  95.4224766  84.5155393
 118.4939105  94.0040036  84.3249267 117.4405570 104.6184778  68.7803578
 117.5893691 105.3020243  68.1270251 118.2472014 104.5989868  69.2953034
 120.1815879  95.2994015  81.6523982 119.3119189  95.5927581  81.3806571
 120.4175360  95.8834460  82.3731246 115.1958203 100.6449956  69.7864647
 114.9504245  99.7412286  69.9844857 115.3654118 100.6467106  68.8444125
 114.4653851  96.3778313  67.2850809 113.7723096  96.4522668  66.6290845
 114.2205603  95.6138657  67.8072326 121.3247774  98.4493721  63.5931378
 122.2706879  98.3199930  63.6619796 120.9462019  97.7108383  64.0700806
 121.2086467 102.5011468  85.0532035 122.1289476 102.6790067  85.2472082
 121.1736050 101.5567513  84.9011735 119.5090692  96.3743698  63.5286263
 118.6022147  96.0776811  63.6048977 119.7866673  96.0773516  62.6620550
 110.4268632  97.6950061  73.9785310 110.1071416  96.8415369  73.6859684
 109.8802060  97.9098639  74.7343277 114.2048540 100.4112502  77.6954816
 114.4234549 101.3429610  77.7142850 114.6174313 100.0520477  78.4809620
 121.1252757  90.9180588  69.6830505 120.3153486  90.5727672  70.0585751
 121.8137174  90.6088131  70.2718116 119.0776405  95.9845708  87.0857565
 118.9773132  96.9340065  87.0169656 118.8597947  95.6563947  86.2133635
 118.2789476  93.2330633  63.6698243 119.1408640  93.5585531  63.9294060
 118.4639820  92.4462129  63.1571308 110.2956892 101.3152973  75.9478431
 109.6020363 100.9006926  75.4348386 111.0429883 101.3573509  75.3511850
 118.9407675  99.4142847  85.9022627 118.4574757 100.2143207  86.1086516
 119.0268614  99.4250792  84.9490071 112.2093635 101.2471226  73.8244446
 112.1864323 101.3458914  72.8726329 112.5194271 102.0936377  74.1461612
 114.8681012 103.3047382  77.9391061 115.8224266 103.2731324  77.8720992
 114.6693536 102.8438005  78.7541287 115.4580395 101.8748498  80.5061858
 116.2773284 102.3692576  80.5296696 115.7317202 100.9580466  80.4779426
 113.2231241 108.8467001  74.9561259 113.0885709 108.0867402  74.3899257
 112.8063303 109.5707901  74.4890048 110.7115309  96.2086631  81.2054055
 111.3574172  95.6985585  81.6941281 110.5032460  96.9455313  81.7797481
 119.2318919  90.4726676  66.9577952 119.2197589  91.4168516  67.1146223
 120.1242341  90.2896821  66.6637413 115.0512800  93.3554248  85.3029070
 115.9144261  92.9991053  85.5132394 114.4778210  93.0168143  85.9904474
  52.9732312  -4.9720069  57.6384453  52.8956342  -4.0212244  57.7172934
  52.3693955  -5.3174196  58.2959379  50.6119142  -2.2234675  61.7832655
  50.8515740  -1.5916151  62.4611674  49.7688338  -2.5746635  62.0698014
  51.0863974  -6.1986672  59.1131433  50.4174349  -5.7140545  58.6295474
  50.9476843  -5.9517452  60.0274812  55.2269242  -4.1642929  65.7114092
  55.7787550  -4.0011307  66.4763177  55.5675436  -3.5738491  65.0394117
  55.3955666  -4.4446538  59.9568123  54.9560656  -4.9370159  60.6500979
  56.1463783  -4.9873570  59.7160198  48.1868716  -6.1222382  61.6806565
  48.0523183  -6.8821982  61.1144563  47.7700778  -5.3981483  61.2135354
  51.3437841  -5.2253065  61.8925008  51.2270226  -4.2807633  61.7903698
  50.5230288  -5.5279504  62.2810807  52.3692356  -4.5724804  65.1080936
  53.2719602  -4.5401193  65.4247431  52.1429726  -5.5024353  65.1227272
  66.6688357  -0.0305851  62.7698302  66.3306869  -0.1464786  61.8818837
  67.5378126  -0.4314685  62.7499308  62.5275173   1.8229626  58.7595193
  61.9640038   1.7319563  57.9911481  62.4127568   1.0029530  59.2397686
  67.1508140   1.1229001  68.7284508  67.1396781   0.7281799  67.8565011
  67.3128780   0.3895074  69.3218279  60.0739605   3.3180818  61.5979413
  60.8660897   2.9771642  61.1825713  60.3136255   3.4275793  62.5181567
  68.1074732   5.4900594  54.0709658  67.4562711   6.0754674  53.6843672
  68.9019095   6.0206789  54.1304695  62.0330359   2.5789731  54.4696792
  62.8061235   2.0318718  54.3309668  62.3855758   3.4433980  54.6811254
  63.8715401   3.9066113  67.6763692  63.5805267   4.8111744  67.5610358
  64.5072386   3.9482641  68.3907761  64.7971608   1.2842962  64.2665051
  65.3935181   1.0598984  63.5522014  64.8546580   0.5427707  64.8690499
  64.3696637  -1.2617603  52.1015242  64.6222157  -1.7836082  51.3398705
  63.4321196  -1.4251458  52.2041926  69.5849997   3.1791026  54.6078642
  68.9495830   3.2525652  55.3199547  69.2547403   3.7684624  53.9297721
  64.0892925   0.6410503  54.3039617  63.9729184  -0.0344594  54.9720701
  64.1995185   0.1542877  53.4871770  66.4324466   0.1020650  58.0086306
  66.0682674  -0.4248729  58.7199228  67.2891582  -0.2880881  57.8352792
  68.8305287   3.5927529  64.6713485  68.5306010   4.4952567  64.5629292
  68.4856346   3.3259712  65.5234638  62.2817768   0.0441325  60.7050190
  61.3568264  -0.0882461  60.9127881  62.5302181   0.8235545  61.2020132
  59.6426579  -0.3125401  61.5393979  59.7718960  -0.0590922  62.4533390
  58.9624030   0.2802307  61.2198634  63.8126066  10.3571849  57.6384453
  63.7350096  11.3079674  57.7172934  63.2087710  10.0117721  58.2959379
  64.5589668   0.3385168  69.8563787  65.3004353   0.8770212  69.5798610
  63.8526654   0.9651456  70.0135339  70.0345008   2.4814308  68.4535948
  70.4428364   2.0396719  67.7090581  69.3122270   1.9066936  68.7070141
  70.3573823   3.0415499  62.2088237  69.7282685   3.2061213  61.5064305
  69.9699485   3.4557108  62.9799201  74.2363055   3.9769937  59.5632601
  73.5514093   4.3568838  59.0129634  74.3206904   4.5865263  60.2964549
  71.4913986   1.6229896  66.1627945  71.7030881   2.2661656  65.4862326
  71.4443734   0.7892212  65.6949875  65.9101785   2.7789907  59.4738322
  66.3740130   3.0577610  58.6842945  65.6458583   1.8773351  59.2911413
  62.8025866   2.3261388  62.4118086  63.3727223   2.7548657  61.7735570
  63.3933977   2.0443973  63.1102271  64.8470671  -1.0986941  56.2827887
  65.5494714  -0.6465897  56.7501814  64.5151299  -1.7403122  56.9107781
  63.2951032  -2.5075184  70.6579097  62.6649693  -1.8258903  70.8914494
  63.1887120  -2.6192103  69.7132235  58.5896005  -2.8403388  61.5845021
  57.7995059  -2.5845860  61.1085132  59.0807252  -2.0255050  61.6897062
  72.6059814   4.5001851  64.3350302  73.4277258   4.0982038  64.0532983
  72.6022217   4.3970085  65.2866418  60.5410750  -2.4758809  58.5428498
  59.7441913  -2.3640115  59.0611993  60.3136342  -2.1372157  57.6769388
  66.3716418   4.0485894  66.4911012  66.4360850   4.5106302  67.3269184
  65.6627341   3.4183259  66.6193322  56.8733708  -2.5872898  64.0160012
  57.1241746  -1.7025888  64.2817588  57.4093256  -2.7668296  63.2435104
  66.0864435   5.7154002  56.3589993  65.9510110   6.5605538  56.7874840
  66.6274248   5.9173279  55.5955926  59.5393833   3.2329440  56.9317918
  60.0518353   4.0272690  57.0823482  60.1916545   2.5355730  56.8651519
  61.3488717   6.3495196  59.0140671  61.5255346   7.2713161  58.8261655
  62.1445551   6.0353615  59.4435051  60.6341074  -1.6040172  68.8902834
  60.5194589  -2.5054915  69.1909933  59.7785592  -1.3576475  68.5387651
  67.7132912   6.3377568  70.4890335  67.2696766   5.5513947  70.1711239
  68.3750125   6.5256719  69.8234226  62.4720033   7.8673370  65.0151013
  63.0227458   7.7390433  64.2428007  61.6331509   8.1668259  64.6645906
  69.8114150   6.6180368  68.5171736  69.7932625   7.4389249  68.0252005
  70.7334070   6.4934444  68.7421877  66.2687204   4.1324498  69.3595244
  66.8015541   3.3712786  69.1294552  65.7401285   3.8398150  70.1019399
  57.5042749   1.5618094  57.7077488  58.3417971   1.9715103  57.4911196
  57.6821017   0.6217536  57.6777682  74.3741456   1.9825529  55.3314495
  73.5970898   1.6436689  54.8869657  75.0532937   1.9878153  54.6569460
  67.6339917   3.2610490  56.8714056  67.1061278   2.5263250  56.5587294
  67.1327419   4.0385167  56.6254025  72.6132763   1.4559511  61.9881103
  71.9556437   2.1458772  62.0761231  73.4173162   1.8455943  62.3315089
  65.7792517   1.0790701  49.8749029  64.8719578   0.8479954  50.0740178
  66.2763549   0.2828320  50.0623011  68.6860596   9.7888208  52.7945716
  68.0122294  10.0919904  53.4030673  69.0726418  10.5917288  52.4451173
  66.9580750   1.1803295  54.3973020  66.0491969   0.8962328  54.4945489
  66.9875834   1.6002374  53.5376326  72.1900018   4.7909885  58.1664187
  71.7362345   3.9500795  58.2229378  71.5593984   5.4271283  58.5038967
  70.6332957   6.6286382  59.1014005  70.9255931   7.1891439  58.3826371
  71.1431577   6.9214943  59.8567164  57.5268921  -1.0991190  58.3788222
  57.3293320  -1.6921830  57.6539288  56.9715585  -1.4038980  59.0964161
  66.6556838   2.7212039  51.7361098  66.2176268   2.0047898  51.2766735
  67.3967279   2.9488154  51.1746190  65.5966582   7.4066733  60.1907458
  65.5542761   7.6327579  59.2615990  66.5129281   7.1730107  60.3393260
  74.7999332   3.0645763  62.8048688  75.2335839   2.9721052  63.6531742
  75.5130913   3.0403264  62.1668704  63.7132383   4.2829762  59.9869421
  64.5072981   3.7880082  59.7851996  63.0024075   3.7547625  59.6237127
  68.5327227   6.6647857  64.3381789  68.5864250   7.2338794  65.1059505
  67.6642009   6.8349742  63.9735826  60.0215146  -1.5727157  56.0629174
  59.0912734  -1.6342701  56.2799136  60.1172618  -2.0951204  55.2665815
  75.6614882   3.1069464  65.3381574  75.8550772   4.0115274  65.5840849
  75.5615500   2.6476883  66.1720159  70.7229991   3.2576206  70.9122454
  70.5715497   3.0286758  69.9952538  70.7134670   4.2146808  70.9253799
  67.4915327   0.8308119  65.8968721  68.4207387   0.9819279  65.7237688
  67.0706357   0.9192140  65.0417367  66.2903659   4.8558784  63.6667258
  66.1514744   4.4877568  64.5393196  65.5018255   5.3706423  63.4951216
  66.8851811   9.9567880  55.0092795  67.0603566   9.4855923  55.8238417
  66.1984599  10.5833646  55.2374056  67.8408874   4.2340386  61.0556096
  67.5058707   4.1941156  61.9513746  67.3412820   3.5685102  60.5826506
  61.8153118  -0.3591984  66.5808677  61.6772916  -1.0911745  67.1820216
  62.7258041  -0.4483084  66.2992865  70.7768066   1.5796421  51.3293156
  70.1597236   0.8543249  51.2326208  70.3084554   2.3405781  50.9860230
  64.4435419  -0.6472024  66.0692357  65.1535037  -1.2878832  66.0278975
  64.4004727  -0.3959129  66.9918538  72.4322197   6.2895329  68.9898936
  72.3734743   5.6054549  68.3229519  72.8341716   7.0314319  68.5379562
  61.4512896  13.1057243  61.7832655  61.6909494  13.7375767  62.4611674
  60.6082093  12.7545283  62.0698014  72.4339605   4.2534913  67.2212916
  71.5466383   3.9160835  67.3439315  73.0038156   3.5217944  67.4581681
  54.0868752   0.5859005  60.5455967  54.7739791   0.2720735  59.9576982
  53.9316880   1.4900369  60.2723219  65.9640758   8.9136365  64.1874159
  65.8910929   9.7191337  64.6993463  65.5218151   9.1128331  63.3622180
  65.7530538   8.1508135  57.6976980  64.9698059   8.6929816  57.7915205
  66.4523283   8.6682115  58.0971222  68.4239441   8.8123199  66.3432318
  69.1367414   9.4470664  66.2708219  67.9329470   8.9087065  65.5272319
  70.1456968   2.7174452  57.9149609  69.2113247   2.8375914  57.7454314
  70.3233637   1.8146919  57.6509619  63.4751355   6.5617643  67.1637888
  64.1760814   7.1954126  67.3167283  63.0046470   6.9032374  66.4033528
  71.6005751   4.9035593  55.4485795  71.8765595   4.7892187  56.3579670
  70.7310250   4.5053077  55.4097969  68.2359815   9.1521943  59.0918609
  68.4182209   8.3343599  59.5546361  69.0592801   9.3689636  58.6543499
  68.5701980   8.0790129  56.3533658  69.0989747   7.5682583  55.7403820
  68.8330200   7.7632659  57.2179191  67.3240214  -0.1417939  71.4756476
  66.6480851  -0.2423809  72.1458851  68.1467848  -0.2978725  71.9392473
  59.0719073   6.0953998  64.0968991  59.6572510   5.3497686  64.2296895
  58.8743911   6.4057955  64.9805655  61.9257728   9.1305245  59.1131433
  61.2568104   9.6151373  58.6295474  61.7870598   9.3774466  60.0274812
  53.6636728  -1.3340402  62.8173434  53.7020827  -1.8676811  63.6110552
  53.1577021  -1.8605196  62.1984411  66.0662997  11.1648989  65.7114092
  66.6181305  11.3280610  66.4763177  66.4069190  11.7553427  65.0394117
  70.9173871   5.9910246  71.5662746  71.4613775   6.6040205  71.0717701
  70.3360716   6.5489825  72.0829759  57.2945305  -2.6076300  55.8927366
  57.5898746  -3.5165621  55.8394419  56.3933341  -2.6288560  55.5708368
  69.2031384   9.1130964  62.6977774  69.0782524   8.3120704  62.1888719
  69.8610475   9.6077158  62.2091744  71.2666292   6.9139984  64.3257324
  70.3196628   6.7945336  64.2535651  71.6149066   6.0262482  64.4083586
  68.2712726   6.7092701  60.5261676  68.1237688   5.7809408  60.7069246
  69.0966219   6.7312791  60.0418752  71.8746848   7.5321259  61.6126549
  72.7993395   7.3264121  61.4751000  71.7062151   7.2837661  62.5215891
  63.0073461  -2.4783749  62.0964538  62.8618042  -2.1643445  62.9888820
  62.5298665  -1.8598848  61.5435437  71.6642164   8.0506927  56.9688641
  71.8379041   7.4853349  56.2162493  72.1571055   8.8507822  56.7868130
  57.4819124   0.0621596  65.0352199  56.9372592   0.8381404  65.1672474
  58.3598474   0.4092400  64.8771321  72.6517336   7.3673691  54.0685539
  73.3468241   7.9880384  54.2872853  72.9940486   6.5169042  54.3437917
  58.2685146  -0.8108508  67.9282356  57.5266882  -0.6625872  68.5146987
  57.9477890  -0.5500242  67.0649106  74.5508759   4.8173397  55.5972870
  75.0760084   5.1560669  54.8722190  74.4631112   3.8820412  55.4136004
  66.2128808   8.7307470  67.7262746  66.5215935   8.4856617  68.5985446
  67.0104290   8.9354109  67.2381616  66.2349420  10.8845380  59.9568123
  65.7954410  10.3921759  60.6500979  66.9857537  10.3418348  59.7160198
  58.7141759   7.0756921  59.9592751  59.5399779   6.7760693  59.5791394
  58.3635811   6.3064543  60.4082540  63.6823292   6.4283389  62.0290424
  63.0603302   5.7654094  61.7292652  64.3528159   6.4544521  61.3464072
  56.9150364   4.9943247  60.9181684  56.0782273   4.5665422  60.7365686
  56.8874010   5.1875691  61.8552476  74.2402666   5.4506300  70.9024068
  73.4498209   5.4330439  70.3628567  74.0036020   5.9894594  71.6573104
  74.3600541   2.2998767  68.2156796  74.4098546   2.1348774  69.1572319
  74.2514464   1.4326026  67.8254677  63.2436799   4.9787312  55.5048885
  63.3924920   5.6622777  54.8515558  64.0503243   4.9592402  56.0198341
  75.8618737   4.7195708  68.4598818  75.5703546   5.0825689  69.2962279
  75.2490869   4.0062717  68.2812150  60.9989432   1.0052490  56.5109954
  60.7535474   0.1014820  56.7090164  61.1685347   1.0069641  55.5689432
  66.7432205   7.4735443  52.9760632  66.1706172   8.0925630  52.5231104
  67.3164998   8.0234805  53.5100554  69.9629465   7.7572593  54.1069215
  70.8960138   7.6918155  54.3102090  69.8752677   8.5928860  53.6483747
  72.5917481   7.0738463  51.0673162  72.5131113   6.7398327  51.9608920
  73.4127148   7.5660231  51.0664635  67.0117696   2.8614002  71.7777342
  67.9320705   3.0392601  71.9717388  66.9767279   1.9170047  71.6257041
  56.2299861  -1.9447405  60.7030617  55.9102645  -2.7982096  60.4104991
  55.6833289  -1.7298826  61.4588584  60.0079768   0.7715036  64.4200123
  60.2265778   1.7032144  64.4388157  60.4205542   0.4123011  65.2054927
  56.0988121   1.6755507  62.6723738  55.4051592   1.2609460  62.1593693
  56.8461112   1.7176043  62.0757157  64.7438904  -0.2254619  72.6267934
  64.2605985   0.5745741  72.8331823  64.8299843  -0.2146674  71.6735378
  58.0124863   1.6073761  60.5489753  57.9895551   1.7061448  59.5971636
  58.3225500   2.4538912  60.8706919  60.6712241   3.6649916  64.6636367
  61.6255495   3.6333858  64.5966299  60.4724765   3.2040539  65.4786593
  61.2611623   2.2351032  67.2307165  62.0804512   2.7295110  67.2542002
  61.5348431   1.3183000  67.2024733  59.0262470   9.2069535  61.6806565
  58.8916938   8.4469936  61.1144563  58.6094532   9.9310435  61.2135354
  70.1621433   4.3906459  50.6883141  70.8657283   4.5956461  51.3040796
  69.4384082   4.9583221  50.9532224  62.1831596  10.1038852  61.8925008
  62.0663980  11.0484285  61.7903698  61.3624042   9.8012414  62.2810807
  72.0708130   4.8288988  52.7381601  72.9053734   4.3970186  52.5559075
  71.9092473   4.6571002  53.6658495  71.7254023   1.3321101  54.1037940
  71.6702826   1.1665373  53.1626384  71.1000078   2.0397134  54.2600130
  56.5146538  -3.4310834  67.9299362  57.1605401  -3.9411880  68.4186587
  56.3063689  -2.6942153  68.5042787  69.0399930   3.6370013  73.4291503
  69.9091089   3.8110665  73.0678138  68.5606681   4.4564430  73.3067232
  63.2086110  10.7567114  65.1080936  64.1113357  10.7890724  65.4247431
  62.9823480   9.8267565  65.1227272  64.9639712   9.5098101  61.7691015
  64.0135343   9.5099962  61.6555387  65.2672198   8.7630835  61.2527050
  80.6992406  15.3458639  62.8336777  81.3370815  15.2265386  62.1300117
  80.5813248  16.2939483  62.8924730  77.5082112  15.2986067  62.7698302
  77.1700623  15.1827132  61.8818837  78.3771880  14.8977232  62.7499308
  73.3668927  17.1521544  58.7595193  72.8033793  17.0611481  57.9911481
  73.2521323  16.3321448  59.2397686  77.9901895  16.4520919  68.7284508
  77.9790536  16.0573717  67.8565011  78.1522534  15.7186992  69.3218279
  70.9133359  18.6472735  61.5979413  71.7054651  18.3063560  61.1825713
  71.1530010  18.7567710  62.5181567  78.9468486  20.8192511  54.0709658
  78.2956466  21.4046592  53.6843672  79.7412849  21.3498706  54.1304695
  72.8724113  17.9081648  54.4696792  73.6454989  17.3610636  54.3309668
  73.2249512  18.7725898  54.6811254  74.7109156  19.2358031  67.6763692
  74.4199022  20.1403662  67.5610358  75.3466140  19.2774558  68.3907761
  75.6365363  16.6134879  64.2665051  76.2328935  16.3890902  63.5522014
  75.6940334  15.8719625  64.8690499  75.2090391  14.0674315  52.1015242
  75.4615912  13.5455836  51.3398705  74.2714950  13.9040460  52.2041926
  80.2533674  13.0710093  59.9089985  81.0396763  12.6529516  59.5580402
  80.5172378  13.9756185  60.0771634  80.4243751  18.5082943  54.6078642
  79.7889584  18.5817570  55.3199547  80.0941158  19.0976542  53.9297721
  85.6542101  13.0085326  60.8122964  86.3867273  12.4384543  61.0460793
  84.8981457  12.6206927  61.2529469  74.9286680  15.9702421  54.3039617
  74.8122938  15.2947324  54.9720701  75.0388940  15.4834794  53.4871770
  77.2718221  15.4312568  58.0086306  76.9076428  14.9043189  58.7199228
  78.1285337  15.0411037  57.8352792  83.1767521   6.7206900  65.2717573
  82.8450846   7.5902311  65.0478787  82.5813135   6.4043184  65.9511603
  76.9123708  10.4602467  53.0047655  77.0798110  11.3282704  53.3718126
  76.7220877  10.6229749  52.0808944  79.6699041  18.9219446  64.6713485
  79.3699764  19.8244485  64.5629292  79.3250101  18.6551629  65.5234638
  73.1211522  15.3733243  60.7050190  72.1962019  15.2409457  60.9127881
  73.3695936  16.1527462  61.2020132  83.0696185  11.4401986  62.3510923
  82.1613062  11.3717395  62.0569684  83.0183781  11.9173931  63.1792748
  76.8912929  12.9160125  53.9894322  76.7712554  13.3617176  54.8279802
  76.1965517  13.2645442  53.4307860  70.4820334  15.0166517  61.5393979
  70.6112715  15.2700996  62.4533390  69.8017785  15.6094225  61.2198634
  77.1437051  12.8591632  70.2945820  76.3670385  13.4185552  70.2848684
  77.7827614  13.3448415  70.8160690  84.9357831   9.6418425  64.1288796
  84.2932211   9.9350958  63.4828591  84.4312760   9.5271345  64.9341993
  82.5897995  13.3881598  54.8174656  83.5015851  13.6208985  54.6422353
  82.0807642  13.9718642  54.2549734  75.3983423  15.6677085  69.8563787
  76.1398107  16.2062129  69.5798610  74.6920408  16.2943374  70.0135339
  80.8738763  17.8106226  68.4535948  81.2822119  17.3688636  67.7090581
  80.1516024  17.2358853  68.7070141  77.2269833  12.7478833  65.8269505
  78.0731028  13.1718246  65.9704154  77.1668470  12.0912457  66.5208068
  81.1967577  18.3707416  62.2088237  80.5676440  18.5353131  61.5064305
  80.8093239  18.7849026  62.9799201  85.0756809  19.3061854  59.5632601
  84.3907847  19.6860756  59.0129634  85.1600658  19.9157181  60.2964549
  80.3769278  10.4083201  67.4850679  80.1330210  11.1625261  66.9484955
  80.6529208  10.7868549  68.3197926  82.3307741  16.9521813  66.1627945
  82.5424636  17.5953573  65.4862326  82.2837489  16.1184130  65.6949875
  79.9333970   9.5639634  63.0664517  79.0718449   9.8620888  63.3581254
  79.9596404   9.7810033  62.1345549  76.7495539  18.1081825  59.4738322
  77.2133885  18.3869528  58.6842945  76.4852337  17.2065269  59.2911413
  73.6419620  17.6553306  62.4118086  74.2120977  18.0840574  61.7735570
  74.2327732  17.3735891  63.1102271  75.6864425  14.2304977  56.2827887
  76.3888468  14.6826021  56.7501814  75.3545054  13.5888796  56.9107781
  74.1344787  12.8216734  70.6579097  73.5043447  13.5033014  70.8914494
  74.0280875  12.7099815  69.7132235  69.4289759  12.4888530  61.5845021
  68.6388813  12.7446058  61.1085132  69.9201006  13.3036867  61.6897062
  83.4453569  19.8293769  64.3350302  84.2671012  19.4273956  64.0532983
  83.4415972  19.7262003  65.2866418  71.3804504  12.8533109  58.5428498
  70.5835668  12.9651803  59.0611993  71.1530097  13.1919761  57.6769388
  77.2110172  19.3777812  66.4911012  77.2754605  19.8398219  67.3269184
  76.5021096  18.7475177  66.6193322  67.7127462  12.7419020  64.0160012
  67.9635500  13.6266030  64.2817588  68.2487010  12.5623622  63.2435104
  91.5359562  16.1732517  60.6835273  90.7823270  15.6039915  60.5279278
  91.6707103  16.1395182  61.6305908  76.9258190  21.0445920  56.3589993
  76.7903865  21.8897455  56.7874840  77.4668002  21.2465197  55.5955926
  73.4125529   7.1237499  73.0204348  73.0192475   6.5703698  73.6951992
  74.2291670   7.4348078  73.4110865  70.3787587  18.5621358  56.9317918
  70.8912108  19.3564608  57.0823482  71.0310300  17.8647648  56.8651519
  72.1882472  21.6787114  59.0140671  72.3649100  22.6005079  58.8261655
  72.9839305  21.3645533  59.4435051  76.3293490   8.5395378  70.6124604
  77.0703204   9.1402532  70.5329067  76.5611413   7.7973016  70.0542647
  71.4734828  13.7251746  68.8902834  71.3588344  12.8237003  69.1909933
  70.6179346  13.9715442  68.5387651  78.5526666  21.6669486  70.4890335
  78.1090520  20.8805865  70.1711239  79.2143880  21.8548637  69.8234226
  73.3113787  23.1965288  65.0151013  73.8621212  23.0682351  64.2428007
  72.4725263  23.4960177  64.6645906  80.6507904  21.9472286  68.5171736
  80.6326380  22.7681167  68.0252005  81.5727824  21.8226361  68.7421877
  77.1080958  19.4616415  69.3595244  77.6409295  18.7004704  69.1294552
  76.5795039  19.1690067  70.1019399  80.2750653   4.5676481  64.8888886
  79.9314923   5.4578123  64.8127997  80.6429616   4.3778139  64.0258471
  68.3436504  16.8910012  57.7077488  69.1811726  17.3007020  57.4911196
  68.5214772  15.9509454  57.6777682  80.2400936  14.5585093  53.3961321
  79.7247559  15.3289697  53.6349709  79.9678244  13.8850229  54.0194383
  77.8248047   9.4034793  58.4546560  76.9689643   9.0141644  58.2752198
  78.2374999   9.4826754  57.5946345  79.3547194   6.9381137  62.8538119
  78.8511989   6.9011272  62.0405925  79.6477801   7.8473879  62.9134776
  75.5990080   7.0219866  61.8604301  76.4643076   6.8262675  61.5010191
  75.6667588   6.7930218  62.7873658  85.2135210  17.3117447  55.3314495
  84.4364653  16.9728607  54.8869657  85.8926691  17.3170070  54.6569460
  80.0287239  12.4312185  55.2221102  79.7237375  12.7458334  56.0731246
  80.9817681  12.5093604  55.2648435  78.4733671  18.5902408  56.8714056
  77.9455033  17.8555168  56.5587294  77.9721174  19.3677084  56.6254025
  83.4526517  16.7851428  61.9881103  82.7950191  17.4750690  62.0761231
  84.2566916  17.1747860  62.3315089  73.2052399   9.2522074  59.2320668
  73.7796151   9.0297256  58.4993861  73.7923381   9.3210769  59.9849269
  82.2631976  15.1395801  60.0385044  82.7763858  15.7725793  60.5406754
  82.9133200  14.5396997  59.6728404  73.5321986  11.2826535  53.2516553
  72.6959298  11.6201222  53.5725828  73.3926755  11.1475515  52.3143690
  75.5075066   6.1263323  57.9595737  74.8539479   5.8112340  57.3352352
  75.4655541   5.5039064  58.6855560  76.6186271  16.4082618  49.8749029
  75.7113333  16.1771872  50.0740178  77.1157303  15.6120237  50.0623011
  78.7412807  12.6145257  62.2843385  77.8235368  12.8360204  62.1265073
  79.1572950  12.6891567  61.4255092  79.5247854  14.0136672  57.4146065
  80.2719673  14.5258070  57.1053187  79.7939444  13.6920725  58.2750459
  77.7974505  16.5095213  54.3973020  76.8885724  16.2254246  54.4945489
  77.8269588  16.9294292  53.5376326  83.0293772  20.1201803  58.1664187
  82.5756099  19.2792712  58.2229378  82.3987739  20.7563201  58.5038967
  81.9726692  11.0493789  59.3964855  81.2349448  10.5371175  59.7275097
  82.2253465  10.6094170  58.5848131  81.4726711  21.9578299  59.1014005
  81.7649686  22.5183356  58.3826371  81.9825332  22.2506860  59.8567164
  68.3662675  14.2300727  58.3788222  68.1687075  13.6370088  57.6539288
  67.8109339  13.9252937  59.0964161  76.3459399  14.1223834  60.4982815
  76.4008008  13.1697670  60.4225291  75.5350601  14.2783273  60.9824113
  77.4950592  18.0503957  51.7361098  77.0570022  17.3339816  51.2766735
  78.2361033  18.2780072  51.1746190  74.2851759  12.7400893  58.2573194
  73.4719624  13.0395064  58.6638386  74.7810753  12.3456582  58.9747676
  76.4360337  22.7358650  60.1907458  76.3936515  22.9619497  59.2615990
  77.3523035  22.5022025  60.3393260  79.8825970  13.2042718  67.0888088
  80.2375358  13.4314191  67.9482553  80.5298102  13.5361095  66.4665343
  85.6123707  16.3261154  57.7937417  85.4741606  16.5162750  56.8658606
  85.2559926  17.0880537  58.2505468  73.7765833  10.3119249  63.8734429
  74.4165213  10.1708008  63.1757392  72.9443364  10.0253762  63.4973031
  85.6393087  18.3937681  62.8048688  86.0729594  18.3012970  63.6531742
  86.3524668  18.3695181  62.1668704  74.5526137  19.6121679  59.9869421
  75.3466736  19.1171999  59.7851996  73.8417830  19.0839542  59.6237127
  79.3720982  21.9939775  64.3381789  79.4258004  22.5630711  65.1059505
  78.5035763  22.1641660  63.9735826  70.8608901  13.7564761  56.0629174
  69.9306489  13.6949217  56.2799136  70.9566373  13.2340714  55.2665815
  70.7794450  10.2819574  58.6507416  71.0401267  11.1964907  58.5416576
  71.6011622   9.8144016  58.8004028  72.2519375  11.6957331  65.8206240
  72.9242429  11.4874693  65.1718889  71.4249162  11.4979417  65.3811472
  86.5008636  18.4361381  65.3381574  86.6944526  19.3407192  65.5840849
  86.4009255  17.9768800  66.1720159  78.1544947   8.3219272  67.8371901
  77.5072862   9.0209222  67.7436377  78.9245963   8.7555416  68.2048149
  81.5623745  18.5868124  70.9122454  81.4109252  18.3578676  69.9952538
  81.5528425  19.5438726  70.9253799  78.3309081  16.1600037  65.8968721
  79.2601141  16.3111197  65.7237688  77.9100112  16.2484058  65.0417367
  77.1297413  20.1850701  63.6667258  76.9908499  19.8169486  64.5393196
  76.3412010  20.6998341  63.4951216  78.6802628  19.5632304  61.0556096
  78.3452461  19.5233074  61.9513746  78.1806574  18.8977020  60.5826506
  72.6546872  14.9699934  66.5808677  72.5166670  14.2380173  67.1820216
  73.5651796  14.8808834  66.2992865  81.6161820  16.9088338  51.3293156
  80.9990991  16.1835167  51.2326208  81.1478309  17.6697699  50.9860230
  75.2829173  14.6819893  66.0692357  75.9928792  14.0413086  66.0278975
  75.2398481  14.9332788  66.9918538  83.2715952  21.6187247  68.9898936
  83.2128498  20.9346467  68.3229519  83.6735470  22.3606237  68.5379562
  73.9958107  11.6685111  67.8887996  73.4595464  11.2175850  68.5409593
  73.4074815  11.8031020  67.1458461  73.4060366  11.1273763  50.4514460
  72.5289832  11.0062563  50.0876707  73.8818119  10.3359841  50.1993349
  83.2733359  19.5826831  67.2212916  82.3860138  19.2452752  67.3439315
  83.8431910  18.8509862  67.4581681  64.9262506  15.9150922  60.5455967
  65.6133546  15.6012652  59.9576982  64.7710635  16.8192287  60.2723219
  69.7297228  10.8041119  64.9740991  69.6455417  10.1966789  64.2391401
  68.9079935  11.2950137  64.9750487  76.8034512  24.2428283  64.1874159
  76.7304684  25.0483255  64.6993463  76.3611906  24.4420249  63.3622180
  76.5924292  23.4800053  57.6976980  75.8091814  24.0221733  57.7915205
  77.2917037  23.9974033  58.0971222  79.9020942   9.2894682  60.3411186
  80.3989642   8.5364645  60.0212256  79.1307924   9.3258999  59.7754395
  87.7550700  14.9935048  61.9829477  87.7440576  15.8759763  61.6123410
  86.8868079  14.6406599  61.7884014  79.2633196  24.1415117  66.3432318
  79.9761168  24.7762582  66.2708219  78.7723225  24.2378983  65.5272319
  80.9850723  18.0466370  57.9149609  80.0507002  18.1667832  57.7454314
  81.1627391  17.1438836  57.6509619  76.4855911  11.4312065  60.0682870
  76.1153698  10.8783106  60.7563776  76.9815003  10.8270199  59.5157871
  84.3723274  13.8883689  58.4499643  84.8383726  14.7211681  58.3759946
  84.8230775  13.4228671  59.1544902  74.3145109  21.8909561  67.1637888
  75.0154569  22.5246043  67.3167283  73.8440224  22.2324292  66.4033528
  82.4399505  20.2327510  55.4485795  82.7159349  20.1184105  56.3579670
  81.5704004  19.8344995  55.4097969  82.3439937   6.2564276  62.4890545
  81.4303017   6.4868503  62.6572752  82.7733038   6.3402720  63.3404577
  82.1146395  14.4454168  64.9890439  81.4617846  14.6930075  64.3342892
  82.4926775  13.6318306  64.6552916  79.0753569  24.4813861  59.0918609
  79.2575964  23.6635517  59.5546361  79.8986555  24.6981553  58.6543499
  79.4095735  23.4082046  56.3533658  79.9383501  22.8974501  55.7403820
  79.6723954  23.0924576  57.2179191  78.1633968  15.1873979  71.4756476
  77.4874605  15.0868108  72.1458851  78.9861602  15.0313193  71.9392473
  69.9112828  21.4245916  64.0968991  70.4966264  20.6789603  64.2296895
  69.7137666  21.7349872  64.9805655  64.5030482  13.9951516  62.8173434
  64.5414582  13.4615106  63.6110552  63.9970775  13.4686721  62.1984411
  76.9056751  26.4940906  65.7114092  77.4575059  26.6572528  66.4763177
  77.2462945  27.0845344  65.0394117  71.8821245   8.8416056  66.3135977
  71.9462571   9.7030887  65.9013374  71.8188365   8.2290058  65.5808335
  71.3573517  10.9139189  69.9609011  71.9845556  10.5316266  70.5746535
  70.5001436  10.6953391  70.3264703  81.7567626  21.3202164  71.5662746
  82.3007530  21.9332122  71.0717701  81.1754470  21.8781742  72.0829759
  68.1339060  12.7215618  55.8927366  68.4292501  11.8126296  55.8394419
  67.2327096  12.7003357  55.5708368  80.0425139  24.4422882  62.6977774
  79.9176278  23.6412622  62.1888719  80.7004230  24.9369075  62.2091744
  71.6633307  10.7971614  61.8754914  70.9419893  11.4107582  61.7362388
  72.4526563  11.3329379  61.7971560  82.1060047  22.2431902  64.3257324
  81.1590383  22.1237253  64.2535651  82.4542820  21.3554400  64.4083586
  74.4659620   8.1326041  68.1495566  74.9894022   8.3788338  68.9121875
  74.2471954   8.9646076  67.7298703  69.8626901  10.4029716  56.0166691
  69.5339608   9.5227094  55.8341797  70.2166272  10.3477384  56.9043080
  79.1106480  22.0384618  60.5261676  78.9631443  21.1101326  60.7069246
  79.9359974  22.0604709  60.0418752  72.9768725  10.6902685  56.3842168
  73.3164797  11.2188607  55.6620777  73.4240845  11.0283091  57.1600735
  82.7140602  22.8613177  61.6126549  83.6387150  22.6556038  61.4751000
  82.5455906  22.6129578  62.5215891  75.6712165   9.0739736  65.8345237
  75.3308986   8.2747549  66.2365916  74.9651172   9.3741447  65.2622070
  76.3228637   6.1589049  64.2872560  77.1454707   5.6849527  64.1651450
  76.5666701   6.9379532  64.7871246  74.9636872   9.1877307  54.5835461
  75.6845234   9.5658560  54.0799178  74.3402176   9.9066184  54.6870439
  79.1067995   9.8922456  55.5193794  79.3231609  10.7747094  55.2182622
  78.6262062   9.5008669  54.7899436  73.8467216  12.8508169  62.0964538
  73.7011797  13.1648472  62.9888820  73.3692420  13.4693069  61.5435437
  75.7063599   9.8410717  62.1445428  75.6925168   8.9451810  61.8077726
  76.4236027   9.8481381  62.7783714  77.5589730  10.2748057  64.1898555
  77.3007507  11.1965128  64.1882886  77.0274770   9.8778492  64.8799019
  82.5035918  23.3798844  56.9688641  82.6772796  22.8145267  56.2162493
  82.9964810  24.1799739  56.7868130  68.3212878  15.3913514  65.0352199
  67.7766346  16.1673322  65.1672474  69.1992228  15.7384318  64.8771321
  75.1100495   8.7225097  57.4132998  75.2316406   7.7941744  57.6123885
  74.8202537   8.7363783  56.5011313  77.9791685   6.4080008  60.5499718
  78.0013382   6.4719341  59.5951697  78.3959744   5.5684517  60.7440224
  88.3575310  16.1435267  58.5878940  88.8006456  15.3942593  58.1898064
  87.4801820  16.1345404  58.2052672  69.1078900  14.5183410  67.9282356
  68.3660636  14.6666045  68.5146987  68.7871644  14.7791675  67.0649106
  85.3902514  20.1465314  55.5972870  85.9153838  20.4852587  54.8722190
  85.3024867  19.2112330  55.4136004  77.0522563  24.0599388  67.7262746
  77.3609689  23.8148535  68.5985446  77.8498045  24.2646027  67.2381616
  77.0743175  26.2137298  59.9568123  76.6348165  25.7213676  60.6500979
  77.8251292  25.6710265  59.7160198  69.5535514  22.4048839  59.9592751
  70.3793534  22.1052610  59.5791394  69.2029566  21.6356461  60.4082540
  74.5217047  21.7575307  62.0290424  73.8997056  21.0946012  61.7292652
  75.1921914  21.7836439  61.3464072  67.7544119  20.3235165  60.9181684
  66.9176027  19.8957339  60.7365686  67.7267764  20.5167608  61.8552476
  74.5941574  10.2357095  71.6222930  74.6429730  11.1119218  71.2400700
  75.1364089   9.6934488  71.0494574  85.0796420  20.7798218  70.9024068
  84.2891964  20.7622357  70.3628567  84.8429775  21.3186512  71.6573104
  85.1994295  17.6290684  68.2156796  85.2492300  17.4640692  69.1572319
  85.0908218  16.7617943  67.8254677  74.0830554  20.3079230  55.5048885
  74.2318674  20.9914694  54.8515558  74.8896997  20.2884320  56.0198341
  82.4898057  13.6121612  69.5316103  83.3907920  13.4728077  69.2400101
  82.5646032  13.7776067  70.4714280  76.8240863  10.9888467  68.3769289
  75.9544172  11.2822033  68.1051878  77.0600343  11.5728912  69.0976553
  86.7012492  20.0487626  68.4598818  86.4097300  20.4117606  69.2962279
  86.0884623  19.3354634  68.2812150  87.9008174  17.6140506  60.9801388
  88.7355066  18.0530310  61.1438948  88.0367303  17.1379159  60.1609634
  84.9499680  15.1720241  66.9278876  85.4253802  15.3647887  66.1197727
  84.0265246  15.2279426  66.6822259  71.8383187  16.3344408  56.5109954
  71.5929229  15.4306738  56.7090164  72.0079101  16.3361558  55.5689432
  79.5279897   7.2068084  65.8934710  80.0461840   7.9429111  65.5681198
  79.1735029   7.5132077  66.7281469  71.1078834  12.0672765  54.0096115
  70.4148079  12.1417120  53.3536151  70.8630586  11.3033109  54.5317632
  77.5825959  22.8027361  52.9760632  77.0099926  23.4217548  52.5231104
  78.1558753  23.3526722  53.5100554  83.6501349  12.0486001  65.1607181
  84.6018772  12.1484098  65.1819405  83.4804800  11.2564269  65.6705266
  81.6715729   9.1341584  65.3466582  81.0765661   9.4146597  64.6513071
  81.3865425   9.6235485  66.1183323  86.1289427  15.2692120  64.2749481
  86.0965747  14.3308121  64.4609165  86.7390051  15.3476157  63.5415306
  77.9672758  14.1388173  50.3176685  78.9131863  14.0094381  50.3865103
  77.5887003  13.4002835  50.7946113  86.2783915  12.0603164  64.3207764
  85.7622964  11.2761620  64.1337693  87.1623864  11.7321880  64.4854284
  83.9394642   5.8044179  60.2803577  83.7419463   5.4959268  61.1646909
  84.5494348   6.5305818  60.4101507  91.9465977  16.3308127  63.4155518
  92.6769365  16.0693415  63.9763221  91.3372922  15.5936849  63.4557586
  90.0281274  14.4715990  64.0129969  89.3014437  14.3371955  63.4046460
  89.6128561  14.7792818  64.8186687  77.8511450  18.1905919  71.7777342
  78.7714460  18.3684518  71.9717388  77.8161033  17.2461965  71.6257041
  76.1515675  12.0638150  50.2531570  75.2447130  11.7671262  50.3294284
  76.4291656  11.7667968  49.3865856  67.0693615  13.3844513  60.7030617
  66.7496400  12.5309821  60.4104991  66.5227044  13.5993091  61.4588584
  70.8473523  16.1006954  64.4200123  71.0659533  17.0324062  64.4388157
  71.2599297  15.7414929  65.2054927  77.7677741   6.6075039  56.4075811
  76.9578469   6.2622124  56.7831057  78.4562158   6.2982583  56.9963423
  79.6968289   5.6853086  58.0300108  80.2499328   6.1048540  58.6890131
  79.9338375   4.7588834  58.0723064  75.7201388  11.6740160  73.8102872
  75.6198115  12.6234517  73.7414963  75.5022930  11.3458399  72.9378942
  74.9214460   8.9225085  50.3943549  75.7833624   9.2479983  50.6539367
  75.1064804   8.1356581  49.8816615  66.9381875  17.0047425  62.6723738
  66.2445347  16.5901377  62.1593693  67.6854866  17.0467961  62.0757157
  83.0747096   7.7953611  57.5378772  82.4945765   8.4538415  57.1556825
  82.8083029   6.9730956  57.1266190  81.5250662   7.1958669  59.7400093
  82.0250441   7.3075204  58.9314411  82.1686270   6.8919722  60.3800901
  75.5832658  15.1037299  72.6267934  75.0999740  15.9037659  72.8331823
  75.6693597  15.1145244  71.6735378  68.8518618  16.9365678  60.5489753
  68.8289306  17.0353366  59.5971636  69.1619254  17.7830829  60.8706919
  71.5105996  18.9941833  64.6636367  72.4649249  18.9625776  64.5966299
  71.3118519  18.5332457  65.4786593  72.1005378  17.5642949  67.2307165
  72.9198267  18.0587028  67.2542002  72.3742186  16.6474918  67.2024733
  81.8571974   9.9553702  56.5935121  80.9697829  10.2403352  56.3755315
  82.2725963   9.7947465  55.7462397  85.2086510   9.9800223  60.3089460
  85.9846900  10.4696675  60.5814077  84.4834644  10.4058277  60.7661329
  87.6459069  10.6927842  61.3663400  88.2403560  10.4523578  60.6556709
  87.7185653   9.9734973  61.9936937  69.8656225  24.5361453  61.6806565
  69.7310692  23.7761854  61.1144563  69.4488287  25.2602353  61.2135354
  81.0015188  19.7198376  50.6883141  81.7051038  19.9248379  51.3040796
  80.2777836  20.2875138  50.9532224  81.8312998  15.4708238  56.8085411
  81.7748199  15.9276789  55.9693043  82.3841340  14.7098922  56.6308253
  85.6417804  11.2597970  57.6335530  85.3854738  10.8594605  58.4643738
  85.0170672  11.9741763  57.5085669  89.9530142  13.9994043  60.1406822
  89.3929700  14.0687232  60.9138384  89.3473645  13.8235027  59.4206318
  82.9101885  20.1580906  52.7381601  83.7447489  19.7262104  52.5559075
  82.7486228  19.9862919  53.6658495  82.5647777  16.6613019  54.1037940
  82.5096581  16.4957290  53.1626384  81.9393832  17.3689052  54.2600130
  67.3540292  11.8981083  67.9299362  67.9999156  11.3880037  68.4186587
  67.1457443  12.6349765  68.5042787  79.8793684  18.9661931  73.4291503
  80.7484844  19.1402583  73.0678138  79.4000436  19.7856348  73.3067232
  75.8743903   6.1621128  53.6823258  75.8622572   7.1062968  53.8391529
  76.7667324   5.9791273  53.3882720  71.6937783   9.0448700  72.0274376
  72.5569245   8.6885505  72.2377701  71.1203194   8.7062595  72.7149781
  91.5386160  30.6750557  62.8336777  92.1764570  30.5557304  62.1300117
  91.4207003  31.6231401  62.8924730  88.8295649  31.7812837  68.7284508
  88.8184290  31.3865635  67.8565011  88.9916289  31.0478909  69.3218279
  85.5502910  34.5649948  67.6763692  85.2592776  35.4695579  67.5610358
  86.1859895  34.6066476  68.3907761  91.0927428  28.4002011  59.9089985
  91.8790518  27.9821434  59.5580402  91.3566133  29.3048103  60.0771634
  96.4935856  28.3377244  60.8122964  97.2261028  27.7676461  61.0460793
  95.7375211  27.9498844  61.2529469  94.0161276  22.0498818  65.2717573
  93.6844601  22.9194229  65.0478787  93.4206889  21.7335102  65.9511603
  87.7517462  25.7894385  53.0047655  87.9191865  26.6574621  53.3718126
  87.5614631  25.9521667  52.0808944  90.5092796  34.2511364  64.6713485
  90.2093519  35.1536403  64.5629292  90.1643855  33.9843547  65.5234638
  93.9089939  26.7693904  62.3510923  93.0006817  26.7009313  62.0569684
  93.8577535  27.2465849  63.1792748  87.9830805  28.1883550  70.2945820
  87.2064139  28.7477470  70.2848684  88.6221368  28.6740333  70.8160690
  95.7751586  24.9710342  64.1288796  95.1325966  25.2642876  63.4828591
  95.2706514  24.8563263  64.9341993  93.4291749  28.7173516  54.8174656
  94.3409605  28.9500902  54.6422353  92.9201396  29.3010560  54.2549734
  86.2377177  30.9969003  69.8563787  86.9791862  31.5354047  69.5798610
  85.5314163  31.6235292  70.0135339  91.7132517  33.1398143  68.4535948
  92.1215873  32.6980554  67.7090581  90.9909779  32.5650771  68.7070141
  88.0663587  28.0770750  65.8269505  88.9124782  28.5010164  65.9704154
  88.0062225  27.4204375  66.5208068  92.0361332  33.6999334  62.2088237
  91.4070194  33.8645048  61.5064305  91.6486994  34.1140944  62.9799201
  95.9150564  34.6353772  59.5632601  95.2301602  35.0152673  59.0129634
  95.9994413  35.2449099  60.2964549  91.2163032  25.7375119  67.4850679
  90.9723964  26.4917179  66.9484955  91.4922963  26.1160466  68.3197926
  93.1701495  32.2813731  66.1627945  93.3818390  32.9245491  65.4862326
  93.1231243  31.4476048  65.6949875  90.7727724  24.8931552  63.0664517
  89.9112203  25.1912805  63.3581254  90.7990159  25.1101951  62.1345549
  84.9738541  28.1508651  70.6579097  84.3437202  28.8324932  70.8914494
  84.8674629  28.0391733  69.7132235  94.2847323  35.1585686  64.3350302
  95.1064767  34.7565874  64.0532983  94.2809726  35.0553921  65.2866418
  88.0503927  34.7069730  66.4911012  88.1148359  35.1690137  67.3269184
  87.3414850  34.0767095  66.6193322  78.5521217  28.0710938  64.0160012
  78.8029255  28.9557948  64.2817588  79.0880765  27.8915539  63.2435104
 102.3753316  31.5024435  60.6835273 101.6217025  30.9331833  60.5279278
 102.5100857  31.4687099  61.6305908  84.2519284  22.4529417  73.0204348
  83.8586229  21.8995616  73.6951992  85.0685424  22.7639996  73.4110865
  87.1687245  23.8687296  70.6124604  87.9096958  24.4694449  70.5329067
  87.4005168  23.1264934  70.0542647  82.3128583  29.0543663  68.8902834
  82.1982098  28.1528921  69.1909933  81.4573101  29.3007360  68.5387651
  89.3920421  36.9961404  70.4890335  88.9484275  36.2097782  70.1711239
  90.0537634  37.1840554  69.8234226  91.4901659  37.2764204  68.5171736
  91.4720134  38.0973085  68.0252005  92.4121579  37.1518279  68.7421877
  87.9474713  34.7908333  69.3595244  88.4803050  34.0296621  69.1294552
  87.4188794  34.4981985  70.1019399  91.1144408  19.8968399  64.8888886
  90.7708677  20.7870041  64.8127997  91.4823370  19.7070057  64.0258471
  91.0794691  29.8877010  53.3961321  90.5641314  30.6581615  53.6349709
  90.8071999  29.2142146  54.0194383  88.6641802  24.7326711  58.4546560
  87.8083398  24.3433561  58.2752198  89.0768753  24.8118672  57.5946345
  90.1940948  22.2673054  62.8538119  89.6905744  22.2303189  62.0405925
  90.4871555  23.1765797  62.9134776  86.4383834  22.3511784  61.8604301
  87.3036831  22.1554593  61.5010191  86.5061343  22.1222136  62.7873658
  96.0528965  32.6409365  55.3314495  95.2758407  32.3020524  54.8869657
  96.7320446  32.6461988  54.6569460  90.8680994  27.7604102  55.2221102
  90.5631129  28.0750251  56.0731246  91.8211436  27.8385522  55.2648435
  94.2920272  32.1143346  61.9881103  93.6343946  32.8042607  62.0761231
  95.0960671  32.5039778  62.3315089  84.0446153  24.5813992  59.2320668
  84.6189905  24.3589173  58.4993861  84.6317136  24.6502686  59.9849269
  93.1025730  30.4687719  60.0385044  93.6157612  31.1017711  60.5406754
  93.7526954  29.8688914  59.6728404  86.3468821  21.4555241  57.9595737
  85.6933233  21.1404258  57.3352352  86.3049295  20.8330981  58.6855560
  90.3641609  29.3428590  57.4146065  91.1113428  29.8549987  57.1053187
  90.6333199  29.0212643  58.2750459  93.8687527  35.4493720  58.1664187
  93.4149854  34.6084630  58.2229378  93.2381493  36.0855119  58.5038967
  92.8120446  26.3785706  59.3964855  92.0743203  25.8663092  59.7275097
  93.0647220  25.9386088  58.5848131  92.3120466  37.2870217  59.1014005
  92.6043440  37.8475274  58.3826371  92.8219086  37.5798778  59.8567164
  92.9132073  19.1561958  59.9906624  93.2190950  18.2959322  59.7032539
  93.6384678  19.7479578  59.7905618  90.7219725  28.5334636  67.0888088
  91.0769113  28.7606109  67.9482553  91.3691856  28.8653012  66.4665343
  96.4517462  31.6553071  57.7937417  96.3135360  31.8454667  56.8658606
  96.0953681  32.4172454  58.2505468  84.6159588  25.6411167  63.8734429
  85.2558967  25.4999926  63.1757392  83.7837118  25.3545680  63.4973031
  96.4786841  33.7229598  62.8048688  96.9123348  33.6304888  63.6531742
  97.1918422  33.6987099  62.1668704  81.6188204  25.6111492  58.6507416
  81.8795022  26.5256825  58.5416576  82.4405377  25.1435934  58.8004028
  83.0913130  27.0249249  65.8206240  83.7636183  26.8166611  65.1718889
  82.2642916  26.8271335  65.3811472  97.3402391  33.7653299  65.3381574
  97.5338281  34.6699110  65.5840849  97.2403009  33.3060718  66.1720159
  88.9938702  23.6511190  67.8371901  88.3466617  24.3501139  67.7436377
  89.7639717  24.0847334  68.2048149  92.4017500  33.9160042  70.9122454
  92.2503006  33.6870594  69.9952538  92.3922179  34.8730643  70.9253799
  89.1702836  31.4891955  65.8968721  90.0994896  31.6403114  65.7237688
  88.7493866  31.5775975  65.0417367  83.4940627  30.2991852  66.5808677
  83.3560425  29.5672091  67.1820216  84.4045550  30.2100752  66.2992865
  94.1109706  36.9479164  68.9898936  94.0522252  36.2638385  68.3229519
  94.5129225  37.6898154  68.5379562  84.8351862  26.9977029  67.8887996
  84.2989219  26.5467767  68.5409593  84.2468570  27.1322938  67.1458461
  94.1127114  34.9118748  67.2212916  93.2253892  34.5744670  67.3439315
  94.6825665  34.1801780  67.4581681  80.5690983  26.1333037  64.9740991
  80.4849171  25.5258706  64.2391401  79.7473689  26.6242055  64.9750487
  90.7414697  24.6186600  60.3411186  91.2383396  23.8656562  60.0212256
  89.9701678  24.6550917  59.7754395  98.5944454  30.3226966  61.9829477
  98.5834330  31.2051681  61.6123410  97.7261833  29.9698517  61.7884014
  91.8244477  33.3758287  57.9149609  90.8900756  33.4959750  57.7454314
  92.0021146  32.4730754  57.6509619  95.2117029  29.2175607  58.4499643
  95.6777481  30.0503598  58.3759946  95.6624529  28.7520588  59.1544902
  93.1833691  21.5856194  62.4890545  92.2696771  21.8160421  62.6572752
  93.6126793  21.6694638  63.3404577  92.9540150  29.7746086  64.9890439
  92.3011600  30.0221993  64.3342892  93.3320530  28.9610224  64.6552916
  89.9147324  39.8105779  59.0918609  90.0969718  38.9927435  59.5546361
  90.7380310  40.0273471  58.6543499  89.0027723  30.5165897  71.4756476
  88.3268360  30.4160026  72.1458851  89.8255357  30.3605110  71.9392473
  82.7214999  24.1707974  66.3135977  82.7856326  25.0322805  65.9013374
  82.6582119  23.5581976  65.5808335  82.1967272  26.2431106  69.9609011
  82.8239310  25.8608184  70.5746535  81.3395190  26.0245308  70.3264703
  92.5961380  36.6494082  71.5662746  93.1401284  37.2624040  71.0717701
  92.0148225  37.2073660  72.0829759  82.5027061  26.1263532  61.8754914
  81.7813647  26.7399500  61.7362388  83.2920317  26.6621297  61.7971560
  92.9453801  37.5723820  64.3257324  91.9984137  37.4529171  64.2535651
  93.2936575  36.6846318  64.4083586  85.3053375  23.4617959  68.1495566
  85.8287777  23.7080255  68.9121875  85.0865708  24.2937993  67.7298703
  80.7020656  25.7321633  56.0166691  80.3733362  24.8519012  55.8341797
  81.0560027  25.6769302  56.9043080  83.8162479  26.0194603  56.3842168
  84.1558552  26.5480524  55.6620777  84.2634600  26.3575009  57.1600735
  93.5534357  38.1905095  61.6126549  94.4780904  37.9847956  61.4751000
  93.3849660  37.9421496  62.5215891  86.5105920  24.4031654  65.8345237
  86.1702740  23.6039467  66.2365916  85.8044926  24.7033365  65.2622070
  87.1622392  21.4880966  64.2872560  87.9848461  21.0141444  64.1651450
  87.4060455  22.2671450  64.7871246  85.8030626  24.5169225  54.5835461
  86.5238989  24.8950477  54.0799178  85.1795930  25.2358101  54.6870439
  89.9461749  25.2214374  55.5193794  90.1625363  26.1039011  55.2182622
  89.4655816  24.8300587  54.7899436  86.5457353  25.1702635  62.1445428
  86.5318922  24.2743728  61.8077726  87.2629781  25.1773299  62.7783714
  88.3983484  25.6039975  64.1898555  88.1401262  26.5257046  64.1882886
  87.8668524  25.2070410  64.8799019  85.9494249  24.0517015  57.4132998
  86.0710160  23.1233661  57.6123885  85.6596292  24.0655701  56.5011313
  88.8185440  21.7371926  60.5499718  88.8407136  21.8011259  59.5951697
  89.2353499  20.8976434  60.7440224  99.1969064  31.4727185  58.5878940
  99.6400210  30.7234510  58.1898064  98.3195574  31.4637321  58.2052672
  79.9472654  29.8475327  67.9282356  79.2054391  29.9957963  68.5146987
  79.6265399  30.1083593  67.0649106  96.2296268  35.4757232  55.5972870
  96.7547593  35.8144505  54.8722190  96.1418621  34.5404247  55.4136004
  87.8916317  39.3891306  67.7262746  88.2003444  39.1440452  68.5985446
  88.6891799  39.5937944  67.2381616  85.4335329  25.5649012  71.6222930
  85.4823484  26.4411135  71.2400700  85.9757843  25.0226406  71.0494574
  95.9190175  36.1090136  70.9024068  95.1285718  36.0914275  70.3628567
  95.6823529  36.6478429  71.6573104  96.0388050  32.9582602  68.2156796
  96.0886054  32.7932610  69.1572319  95.9301973  32.0909861  67.8254677
  93.3291812  28.9413530  69.5316103  94.2301675  28.8019995  69.2400101
  93.4039786  29.1067985  70.4714280  87.6634617  26.3180385  68.3769289
  86.7937927  26.6113951  68.1051878  87.8994098  26.9020830  69.0976553
  97.5406246  35.3779544  68.4598818  97.2491055  35.7409524  69.2962279
  96.9278378  34.6646552  68.2812150  98.7401929  32.9432423  60.9801388
  99.5748820  33.3822227  61.1438948  98.8761057  32.4671077  60.1609634
  95.7893435  30.5012158  66.9278876  96.2647556  30.6939805  66.1197727
  94.8659000  30.5571344  66.6822259  90.3673651  22.5360002  65.8934710
  90.8855595  23.2721029  65.5681198  90.0128784  22.8423995  66.7281469
  90.6186245  18.9560284  61.4135606  90.8987999  18.2883473  62.0396033
  91.4036852  19.1489380  60.9010270  94.4895104  27.3777918  65.1607181
  95.4412527  27.4776016  65.1819405  94.3198554  26.5856187  65.6705266
  92.5109483  24.4633502  65.3466582  91.9159415  24.7438514  64.6513071
  92.2259180  24.9527402  66.1183323  96.9683181  30.5984038  64.2749481
  96.9359502  29.6600039  64.4609165  97.5783805  30.6768075  63.5415306
  97.1177670  27.3895081  64.3207764  96.6016719  26.6053538  64.1337693
  98.0017618  27.0613798  64.4854284  94.7788397  21.1336097  60.2803577
  94.5813218  20.8251185  61.1646909  95.3888102  21.8597736  60.4101507
 102.7859731  31.6600045  63.4155518 103.5163120  31.3985333  63.9763221
 102.1766677  30.9228767  63.4557586 100.8675028  29.8007907  64.0129969
 100.1408192  29.6663872  63.4046460 100.4522315  30.1084736  64.8186687
  88.6905205  33.5197837  71.7777342  89.6108214  33.6976436  71.9717388
  88.6554788  32.5753882  71.6257041  88.6071495  21.9366957  56.4075811
  87.7972223  21.5914042  56.7831057  89.2955912  21.6274501  56.9963423
  90.5362043  21.0145004  58.0300108  91.0893082  21.4340457  58.6890131
  90.7732130  20.0880752  58.0723064  86.5595143  27.0032078  73.8102872
  86.4591870  27.9526434  73.7414963  86.3416685  26.6750316  72.9378942
  93.9140851  23.1245529  57.5378772  93.3339520  23.7830333  57.1556825
  93.6476783  22.3022874  57.1266190  92.3644417  22.5250587  59.7400093
  92.8644195  22.6367121  58.9314411  93.0080025  22.2211640  60.3800901
  86.4226413  30.4329216  72.6267934  85.9393494  31.2329576  72.8331823
  86.5087352  30.4437161  71.6735378  92.6965729  25.2845619  56.5935121
  91.8091584  25.5695270  56.3755315  93.1119718  25.1239383  55.7462397
  96.0480265  25.3092140  60.3089460  96.8240655  25.7988593  60.5814077
  95.3228399  25.7350195  60.7661329  98.4852823  26.0219760  61.3663400
  99.0797314  25.7815496  60.6556709  98.5579407  25.3026890  61.9936937
  92.6706752  30.8000155  56.8085411  92.6141954  31.2568707  55.9693043
  93.2235095  30.0390840  56.6308253  96.4811558  26.5889887  57.6335530
  96.2248492  26.1886523  58.4643738  95.8564426  27.3033681  57.5085669
 100.7923896  29.3285960  60.1406822 100.2323454  29.3979150  60.9138384
 100.1867399  29.1526945  59.4206318  78.1934047  27.2273001  67.9299362
  78.8392910  26.7171955  68.4186587  77.9851198  27.9641683  68.5042787
  90.7187439  34.2953848  73.4291503  91.5878598  34.4694501  73.0678138
  90.2394190  35.1148265  73.3067232  86.7137657  21.4913046  53.6823258
  86.7016327  22.4354886  53.8391529  87.6061079  21.3083191  53.3882720
  90.5289777  18.0855822  57.9369195  89.7622172  17.5314309  58.0825877
  90.9400481  18.1577691  58.7983347  82.5331538  24.3740618  72.0274376
  83.3962999  24.0177423  72.2377701  81.9596948  24.0354513  72.7149781
 102.3779915  46.0042474  62.8336777 103.0158324  45.8849222  62.1300117
 102.2600757  46.9523318  62.8924730  99.1869621  45.9569903  62.7698302
  98.8488132  45.8410967  61.8818837 100.0559389  45.5561068  62.7499308
  99.6689404  47.1104754  68.7284508  99.6578045  46.7157553  67.8565011
  99.8310043  46.3770827  69.3218279 100.6255995  51.4776347  54.0709658
  99.9743975  52.0630427  53.6843672 101.4200358  52.0082542  54.1304695
  96.3896665  49.8941866  67.6763692  96.0986531  50.7987497  67.5610358
  97.0253649  49.9358394  68.3907761  97.3152872  47.2718715  64.2665051
  97.9116444  47.0474737  63.5522014  97.3727843  46.5303460  64.8690499
  96.8877900  44.7258150  52.1015242  97.1403421  44.2039671  51.3398705
  95.9502459  44.5624295  52.2041926 101.9321183  43.7293928  59.9089985
 102.7184272  43.3113351  59.5580402 102.1959887  44.6340020  60.0771634
 102.1031260  49.1666779  54.6078642 101.4677093  49.2401405  55.3199547
 101.7728667  49.7560377  53.9297721 107.3329610  43.6669161  60.8122964
 108.0654782  43.0968378  61.0460793 106.5768966  43.2790762  61.2529469
  96.6074189  46.6286256  54.3039617  96.4910447  45.9531159  54.9720701
  96.7176449  46.1418630  53.4871770  98.9505730  46.0896403  58.0086306
  98.5863937  45.5627024  58.7199228  99.8072846  45.6994872  57.8352792
 104.8555030  37.3790736  65.2717573 104.5238355  38.2486147  65.0478787
 104.2600644  37.0627020  65.9511603  98.5911217  41.1186303  53.0047655
  98.7585619  41.9866539  53.3718126  98.4008386  41.2813584  52.0808944
 101.3486550  49.5803282  64.6713485 101.0487273  50.4828320  64.5629292
 101.0037610  49.3135465  65.5234638  94.7999031  46.0317078  60.7050190
  93.8749528  45.8993293  60.9127881  95.0483445  46.8111298  61.2020132
 104.7483694  42.0985822  62.3510923 103.8400571  42.0301230  62.0569684
 104.6971290  42.5757767  63.1792748  98.5700438  43.5743960  53.9894322
  98.4500063  44.0201011  54.8279802  97.8753026  43.9229278  53.4307860
  92.1607843  45.6750352  61.5393979  92.2900224  45.9284831  62.4533390
  91.4805294  46.2678060  61.2198634  98.8224560  43.5175467  70.2945820
  98.0457894  44.0769387  70.2848684  99.4615123  44.0032250  70.8160690
 106.6145340  40.3002260  64.1288796 105.9719720  40.5934793  63.4828591
 106.1100269  40.1855180  64.9341993 104.2685504  44.0465433  54.8174656
 105.1803360  44.2792820  54.6422353 103.7595151  44.6302478  54.2549734
  97.0770932  46.3260921  69.8563787  97.8185616  46.8645965  69.5798610
  96.3707917  46.9527209  70.0135339 102.5526272  48.4690061  68.4535948
 102.9609628  48.0272472  67.7090581 101.8303533  47.8942689  68.7070141
  98.9057342  43.4062668  65.8269505  99.7518537  43.8302081  65.9704154
  98.8455979  42.7496292  66.5208068 102.8755086  49.0291252  62.2088237
 102.2463949  49.1936966  61.5064305 102.4880748  49.4432861  62.9799201
 106.7544318  49.9645690  59.5632601 106.0695356  50.3444591  59.0129634
 106.8388167  50.5741016  60.2964549 102.0556787  41.0667036  67.4850679
 101.8117719  41.8209097  66.9484955 102.3316717  41.4452384  68.3197926
 104.0095250  47.6105649  66.1627945 104.2212145  48.2537409  65.4862326
 103.9624998  46.7767965  65.6949875 101.6121479  40.2223469  63.0664517
 100.7505958  40.5204723  63.3581254 101.6383913  40.4393868  62.1345549
  98.4283048  48.7665660  59.4738322  98.8921394  49.0453363  58.6842945
  98.1639846  47.8649104  59.2911413  97.3651934  44.8888812  56.2827887
  98.0675977  45.3409856  56.7501814  97.0332563  44.2472631  56.9107781
  95.8132296  43.4800569  70.6579097  95.1830956  44.1616850  70.8914494
  95.7068384  43.3683650  69.7132235 105.1241078  50.4877604  64.3350302
 105.9458521  50.0857791  64.0532983 105.1203480  50.3845838  65.2866418
  93.0592013  43.5116944  58.5428498  92.2623177  43.6235638  59.0611993
  92.8317606  43.8503596  57.6769388  98.8897681  50.0361647  66.4911012
  98.9542114  50.4982055  67.3269184  98.1808605  49.4059012  66.6193322
 113.2147071  46.8316353  60.6835273 112.4610779  46.2623751  60.5279278
 113.3494612  46.7979017  61.6305908  98.6045699  51.7029755  56.3589993
  98.4691374  52.5481291  56.7874840  99.1455511  51.9049033  55.5955926
  95.0913038  37.7821335  73.0204348  94.6979984  37.2287533  73.6951992
  95.9079179  38.0931913  73.4110865  98.0080999  39.1979214  70.6124604
  98.7490713  39.7986367  70.5329067  98.2398922  38.4556852  70.0542647
  93.1522337  44.3835581  68.8902834  93.0375852  43.4820838  69.1909933
  92.2966855  44.6299278  68.5387651 100.2314175  52.3253321  70.4890335
  99.7878029  51.5389700  70.1711239 100.8931389  52.5132472  69.8234226
  94.9901296  53.8549123  65.0151013  95.5408721  53.7266186  64.2428007
  94.1512772  54.1544012  64.6645906 102.3295413  52.6056121  68.5171736
 102.3113889  53.4265002  68.0252005 103.2515333  52.4810197  68.7421877
  98.7868467  50.1200251  69.3595244  99.3196804  49.3588539  69.1294552
  98.2582548  49.8273903  70.1019399 101.9538162  35.2260317  64.8888886
 101.6102432  36.1161958  64.8127997 102.3217125  35.0361974  64.0258471
 101.9188445  45.2168928  53.3961321 101.4035068  45.9873532  53.6349709
 101.6465753  44.5434064  54.0194383  99.5035556  40.0618629  58.4546560
  98.6477152  39.6725479  58.2752198  99.9162508  40.1410589  57.5946345
 101.0334703  37.5964972  62.8538119 100.5299498  37.5595107  62.0405925
 101.3265310  38.5057715  62.9134776  97.2777589  37.6803702  61.8604301
  98.1430585  37.4846510  61.5010191  97.3455097  37.4514053  62.7873658
 106.8922719  47.9701283  55.3314495 106.1152162  47.6312442  54.8869657
 107.5714200  47.9753906  54.6569460 101.7074748  43.0896020  55.2221102
 101.4024884  43.4042169  56.0731246 102.6605190  43.1677440  55.2648435
 100.1521180  49.2486243  56.8714056  99.6242542  48.5139003  56.5587294
  99.6508683  50.0260920  56.6254025 105.1314026  47.4435264  61.9881103
 104.4737700  48.1334525  62.0761231 105.9354425  47.8331696  62.3315089
  94.8839908  39.9105910  59.2320668  95.4583660  39.6881091  58.4993861
  95.4710890  39.9794604  59.9849269 103.9419485  45.7979636  60.0385044
 104.4551367  46.4309628  60.5406754 104.5920709  45.1980832  59.6728404
  95.2109495  41.9410371  53.2516553  94.3746807  42.2785057  53.5725828
  95.0714264  41.8059350  52.3143690  97.1862575  36.7847158  57.9595737
  96.5326988  36.4696176  57.3352352  97.1443049  36.1622899  58.6855560
  98.2973780  47.0666454  49.8749029  97.3900842  46.8355707  50.0740178
  98.7944812  46.2704073  50.0623011 100.4200316  43.2729092  62.2843385
  99.5022877  43.4944039  62.1265073 100.8360459  43.3475402  61.4255092
 101.2035363  44.6720508  57.4146065 101.9507182  45.1841905  57.1053187
 101.4726953  44.3504560  58.2750459  99.4762014  47.1679048  54.3973020
  98.5673233  46.8838081  54.4945489  99.5057097  47.5878127  53.5376326
 104.7081281  50.7785638  58.1664187 104.2543608  49.9376548  58.2229378
 104.0775248  51.4147036  58.5038967 103.6514201  41.7077624  59.3964855
 102.9136957  41.1955010  59.7275097 103.9040974  41.2678006  58.5848131
 103.1514220  52.6162135  59.1014005 103.4437195  53.1767192  58.3826371
 103.6612841  52.9090696  59.8567164 103.7525828  34.4853876  59.9906624
 104.0584705  33.6251239  59.7032539 104.4778433  35.0771496  59.7905618
  98.0246908  44.7807669  60.4982815  98.0795517  43.8281505  60.4225291
  97.2138110  44.9367108  60.9824113  99.1738101  48.7087792  51.7361098
  98.7357531  47.9923651  51.2766735  99.9148542  48.9363907  51.1746190
  95.9639268  43.3984729  58.2573194  95.1507133  43.6978899  58.6638386
  96.4598262  43.0040418  58.9747676 101.5613479  43.8626553  67.0888088
 101.9162867  44.0898026  67.9482553 102.2085611  44.1944930  66.4665343
 107.2911216  46.9844989  57.7937417 107.1529115  47.1746585  56.8658606
 106.9347435  47.7464372  58.2505468  95.4553342  40.9703084  63.8734429
  96.0952722  40.8291843  63.1757392  94.6230873  40.6837598  63.4973031
 107.3180596  49.0521516  62.8048688 107.7517102  48.9596805  63.6531742
 108.0312177  49.0279017  62.1668704 101.0508491  52.6523610  64.3381789
 101.1045513  53.2214547  65.1059505 100.1823272  52.8225495  63.9735826
  92.5396410  44.4148596  56.0629174  91.6093998  44.3533052  56.2799136
  92.6353882  43.8924549  55.2665815  92.4581959  40.9403409  58.6507416
  92.7188776  41.8548743  58.5416576  93.2799131  40.4727852  58.8004028
  93.9306884  42.3541166  65.8206240  94.6029938  42.1458529  65.1718889
  93.1036671  42.1563252  65.3811472 108.1796145  49.0945217  65.3381574
 108.3732035  49.9991027  65.5840849 108.0796764  48.6352636  66.1720159
  99.8332456  38.9803107  67.8371901  99.1860371  39.6793057  67.7436377
 100.6033472  39.4139251  68.2048149 103.2411254  49.2451960  70.9122454
 103.0896760  49.0162511  69.9952538 103.2315934  50.2022561  70.9253799
 100.0096590  46.8183872  65.8968721 100.9388650  46.9695032  65.7237688
  99.5887620  46.9067893  65.0417367  98.8084922  50.8434537  63.6667258
  98.6696008  50.4753321  64.5393196  98.0199518  51.3582176  63.4951216
  99.4033074  55.9443633  55.0092795  99.5784830  55.4731676  55.8238417
  98.7165862  56.5709399  55.2374056 100.3590137  50.2216139  61.0556096
 100.0239970  50.1816909  61.9513746  99.8594083  49.5560855  60.5826506
  94.3334381  45.6283769  66.5808677  94.1954179  44.8964008  67.1820216
  95.2439305  45.5392670  66.2992865 103.2949329  47.5672174  51.3293156
 102.6778500  46.8419002  51.2326208 102.8265818  48.3281534  50.9860230
  96.9616682  45.3403729  66.0692357  97.6716301  44.6996921  66.0278975
  96.9185990  45.5916624  66.9918538 104.9503461  52.2771082  68.9898936
 104.8916007  51.5930302  68.3229519 105.3522979  53.0190072  68.5379562
  95.6745616  42.3268947  67.8887996  95.1382973  41.8759685  68.5409593
  95.0862324  42.4614855  67.1458461  95.0847875  41.7857598  50.4514460
  94.2077341  41.6646399  50.0876707  95.5605628  40.9943676  50.1993349
 104.9520868  50.2410666  67.2212916 104.0647647  49.9036588  67.3439315
 105.5219419  49.5093697  67.4581681  98.4822021  54.9012118  64.1874159
  98.4092193  55.7067090  64.6993463  98.0399414  55.1004084  63.3622180
 101.5808451  39.9478518  60.3411186 102.0777151  39.1948480  60.0212256
 100.8095433  39.9842835  59.7754395 109.4338209  45.6518883  61.9829477
 109.4228085  46.5343599  61.6123410 108.5655588  45.2990434  61.7884014
 100.9420705  54.7998952  66.3432318 101.6548677  55.4346417  66.2708219
 100.4510734  54.8962818  65.5272319 102.6638232  48.7050205  57.9149609
 101.7294511  48.8251668  57.7454314 102.8414900  47.8022672  57.6509619
  98.1643420  42.0895901  60.0682870  97.7941207  41.5366941  60.7563776
  98.6602512  41.4854034  59.5157871 106.0510783  44.5467524  58.4499643
 106.5171235  45.3795516  58.3759946 106.5018284  44.0812506  59.1544902
  95.9932618  52.5493396  67.1637888  96.6942078  53.1829879  67.3167283
  95.5227733  52.8908127  66.4033528 104.1187014  50.8911346  55.4485795
 104.3946858  50.7767940  56.3579670 103.2491513  50.4928830  55.4097969
 104.0227446  36.9148111  62.4890545 103.1090526  37.1452338  62.6572752
 104.4520547  36.9986555  63.3404577 103.7933904  45.1038003  64.9890439
 103.1405355  45.3513911  64.3342892 104.1714284  44.2902141  64.6552916
 100.7541078  55.1397696  59.0918609 100.9363473  54.3219352  59.5546361
 101.5774064  55.3565389  58.6543499 101.0883244  54.0665882  56.3533658
 101.6171010  53.5558336  55.7403820 101.3511463  53.7508412  57.2179191
  99.8421477  45.8457814  71.4756476  99.1662114  45.7451944  72.1458851
 100.6649111  45.6897028  71.9392473  98.5844260  57.1524742  65.7114092
  99.1362568  57.3156363  66.4763177  98.9250454  57.7429180  65.0394117
  93.5608754  39.4999892  66.3135977  93.6250080  40.3614723  65.9013374
  93.4975874  38.8873893  65.5808335  93.0361026  41.5723024  69.9609011
  93.6633065  41.1900101  70.5746535  92.1788945  41.3537226  70.3264703
 103.4355135  51.9785999  71.5662746 103.9795039  52.5915958  71.0717701
 102.8541979  52.5365578  72.0829759 101.7212648  55.1006717  62.6977774
 101.5963787  54.2996457  62.1888719 102.3791739  55.5952911  62.2091744
  93.3420816  41.4555450  61.8754914  92.6207402  42.0691418  61.7362388
  94.1314072  41.9913215  61.7971560 103.7847556  52.9015737  64.3257324
 102.8377891  52.7821089  64.2535651 104.1330329  52.0138235  64.4083586
  96.1447129  38.7909876  68.1495566  96.6681531  39.0372173  68.9121875
  95.9259463  39.6229911  67.7298703 100.7893989  52.6968454  60.5261676
 100.6418952  51.7685161  60.7069246 101.6147483  52.7188544  60.0418752
  94.6556234  41.3486521  56.3842168  94.9952306  41.8772442  55.6620777
  95.1028354  41.6866927  57.1600735 104.3928111  53.5197012  61.6126549
 105.3174659  53.3139874  61.4751000 104.2243414  53.2713414  62.5215891
  97.3499674  39.7323571  65.8345237  97.0096495  38.9331385  66.2365916
  96.6438681  40.0325282  65.2622070  98.0016146  36.8172884  64.2872560
  98.8242216  36.3433362  64.1651450  98.2454210  37.5963368  64.7871246
  96.6424381  39.8461142  54.5835461  97.3632743  40.2242395  54.0799178
  96.0189685  40.5650019  54.6870439 100.7855504  40.5506291  55.5193794
 101.0019118  41.4330929  55.2182622 100.3049571  40.1592505  54.7899436
  95.5254725  43.5092005  62.0964538  95.3799306  43.8232308  62.9888820
  95.0479929  44.1276905  61.5435437  97.3851108  40.4994552  62.1445428
  97.3712677  39.6035646  61.8077726  98.1023536  40.5065216  62.7783714
  99.2377239  40.9331893  64.1898555  98.9795016  41.8548963  64.1882886
  98.7062279  40.5362327  64.8799019 104.1823427  54.0382680  56.9688641
 104.3560305  53.4729102  56.2162493 104.6752319  54.8383575  56.7868130
  96.7888004  39.3808933  57.4132998  96.9103915  38.4525579  57.6123885
  96.4990046  39.3947619  56.5011313  99.6579194  37.0663843  60.5499718
  99.6800891  37.1303176  59.5951697 100.0747253  36.2268352  60.7440224
 110.0362818  46.8019103  58.5878940 110.4793965  46.0526428  58.1898064
 109.1589329  46.7929239  58.2052672 105.1698600  53.3549444  54.0685539
 105.8649504  53.9756137  54.2872853 105.5121750  52.5044795  54.3437917
  90.7866409  45.1767245  67.9282356  90.0448145  45.3249881  68.5146987
  90.4659153  45.4375511  67.0649106 107.0690023  50.8049150  55.5972870
 107.5941347  51.1436423  54.8722190 106.9812375  49.8696165  55.4136004
  98.7310072  54.7183223  67.7262746  99.0397198  54.4732370  68.5985446
  99.5285554  54.9229862  67.2381616  98.7530684  56.8721133  59.9568123
  98.3135674  56.3797512  60.6500979  99.5038801  56.3294101  59.7160198
  96.2729083  40.8940930  71.6222930  96.3217239  41.7703053  71.2400700
  96.8151598  40.3518323  71.0494574 106.7583929  51.4382053  70.9024068
 105.9679473  51.4206192  70.3628567 106.5217284  51.9770347  71.6573104
 106.8781804  48.2874520  68.2156796 106.9279809  48.1224527  69.1572319
 106.7695727  47.4201779  67.8254677 104.1685566  44.2705448  69.5316103
 105.0695429  44.1311913  69.2400101 104.2433541  44.4359903  70.4714280
  98.5028372  41.6472303  68.3769289  97.6331681  41.9405869  68.1051878
  98.7387852  42.2312748  69.0976553 108.3800001  50.7071461  68.4598818
 108.0884809  51.0701442  69.2962279 107.7672132  49.9938470  68.2812150
 109.5795683  48.2724341  60.9801388 110.4142575  48.7114145  61.1438948
 109.7154812  47.7962994  60.1609634 106.6287189  45.8304076  66.9278876
 107.1041311  46.0231722  66.1197727 105.7052754  45.8863262  66.6822259
 101.2067406  37.8651919  65.8934710 101.7249349  38.6012946  65.5681198
 100.8522538  38.1715913  66.7281469 101.4580000  34.2852202  61.4135606
 101.7381754  33.6175391  62.0396033 102.2430607  34.4781298  60.9010270
 105.3288858  42.7069836  65.1607181 106.2806281  42.8067934  65.1819405
 105.1592309  41.9148105  65.6705266 103.3503238  39.7925419  65.3466582
 102.7553170  40.0730432  64.6513071 103.0652934  40.2819320  66.1183323
 102.4810728  53.7448346  54.1069215 103.4141401  53.6793908  54.3102090
 102.3933941  54.5804613  53.6483747 105.1098745  53.0614216  51.0673162
 105.0312376  52.7274080  51.9608920 105.9308412  53.5535984  51.0664635
 107.8076936  45.9275956  64.2749481 107.7753256  44.9891956  64.4609165
 108.4177560  46.0059992  63.5415306  99.6460267  44.7972009  50.3176685
 100.5919371  44.6678217  50.3865103  99.2674512  44.0586671  50.7946113
 107.9571424  42.7186999  64.3207764 107.4410473  41.9345456  64.1337693
 108.8411373  42.3905716  64.4854284 105.6182151  36.4628015  60.2803577
 105.4206972  36.1543103  61.1646909 106.2281857  37.1889654  60.4101507
 113.6253486  46.9891963  63.4155518 114.3556874  46.7277251  63.9763221
 113.0160431  46.2520684  63.4557586 111.7068783  45.1299825  64.0129969
 110.9801946  44.9955790  63.4046460 111.2916070  45.4376654  64.8186687
  99.5298959  48.8489755  71.7777342 100.4501969  49.0268354  71.9717388
  99.4948542  47.9045800  71.6257041  97.8303184  42.7221985  50.2531570
  96.9234639  42.4255098  50.3294284  98.1079165  42.4251803  49.3865856
  92.5261032  46.7590789  64.4200123  92.7447042  47.6907897  64.4388157
  92.9386806  46.3998764  65.2054927  99.4465250  37.2658875  56.4075811
  98.6365978  36.9205960  56.7831057 100.1349667  36.9566418  56.9963423
 101.3755798  36.3436922  58.0300108 101.9286837  36.7632375  58.6890131
 101.6125884  35.4172670  58.0723064  97.3988897  42.3323995  73.8102872
  97.2985624  43.2818352  73.7414963  97.1810439  42.0042234  72.9378942
 104.7534605  38.4537447  57.5378772 104.1733274  39.1122251  57.1556825
 104.4870538  37.6314791  57.1266190 103.2038171  37.8542504  59.7400093
 103.7037950  37.9659039  58.9314411 103.8473779  37.5503557  60.3800901
  97.2620167  45.7621134  72.6267934  96.7787249  46.5621494  72.8331823
  97.3481106  45.7729079  71.6735378  93.7792887  48.2226785  67.2307165
  94.5985776  48.7170863  67.2542002  94.0529695  47.3058753  67.2024733
 103.5359483  40.6137537  56.5935121 102.6485338  40.8987188  56.3755315
 103.9513472  40.4531300  55.7462397 106.8874019  40.6384058  60.3089460
 107.6634409  41.1280511  60.5814077 106.1622153  41.0642112  60.7661329
 109.3246578  41.3511677  61.3663400 109.9191069  41.1107413  60.6556709
 109.3973161  40.6318808  61.9936937 102.6802696  50.3782212  50.6883141
 103.3838547  50.5832214  51.3040796 101.9565345  50.9458974  50.9532224
 103.5100507  46.1292073  56.8085411 103.4535708  46.5860624  55.9693043
 104.0628849  45.3682758  56.6308253 107.3205313  41.9181805  57.6335530
 107.0642247  41.5178441  58.4643738 106.6958181  42.6325599  57.5085669
 111.6317651  44.6577878  60.1406822 111.0717209  44.7271067  60.9138384
 111.0261154  44.4818863  59.4206318 104.5889394  50.8164741  52.7381601
 105.4234998  50.3845939  52.5559075 104.4273737  50.6446755  53.6658495
 104.2435286  47.3196854  54.1037940 104.1884090  47.1541126  53.1626384
 103.6181341  48.0272887  54.2600130  89.0327801  42.5564919  67.9299362
  89.6786665  42.0463873  68.4186587  88.8244952  43.2933600  68.5042787
 101.5581193  49.6245766  73.4291503 102.4272353  49.7986418  73.0678138
 101.0787945  50.4440183  73.3067232  95.7267373  56.7442867  65.1080936
  96.6294620  56.7766477  65.4247431  95.5004744  55.8143318  65.1227272
 101.3683531  33.4147740  57.9369195 100.6015927  32.8606227  58.0825877
 101.7794236  33.4869609  58.7983347  93.3725292  39.7032536  72.0274376
  94.2356754  39.3469341  72.2377701  92.7990703  39.3646431  72.7149781
 113.2173669  61.3334392  62.8336777 113.8552079  61.2141139  62.1300117
 113.0994512  62.2815236  62.8924730 110.0263375  61.2861820  62.7698302
 109.6881887  61.1702885  61.8818837 110.8953143  60.8852985  62.7499308
 105.8850191  63.1397297  58.7595193 105.3215056  63.0487234  57.9911481
 105.7702586  62.3197201  59.2397686 110.5083158  62.4396672  68.7284508
 110.4971799  62.0449470  67.8565011 110.6703798  61.7062745  69.3218279
 103.4314623  64.6348488  61.5979413 104.2235915  64.2939313  61.1825713
 103.6711273  64.7443463  62.5181567 111.4649750  66.8068264  54.0709658
 110.8137729  67.3922345  53.6843672 112.2594112  67.3374459  54.1304695
 105.3905377  63.8957401  54.4696792 106.1636253  63.3486389  54.3309668
 105.7430776  64.7601651  54.6811254 107.2290419  65.2233784  67.6763692
 106.9380285  66.1279415  67.5610358 107.8647404  65.2650311  68.3907761
 108.1546626  62.6010632  64.2665051 108.7510199  62.3766655  63.5522014
 108.2121598  61.8595378  64.8690499 107.7271655  60.0550068  52.1015242
 107.9797175  59.5331589  51.3398705 106.7896214  59.8916213  52.2041926
 112.7714937  59.0585846  59.9089985 113.5578027  58.6405269  59.5580402
 113.0353642  59.9631938  60.0771634 112.9425015  64.4958696  54.6078642
 112.3070848  64.5693323  55.3199547 112.6122421  65.0852295  53.9297721
 118.1723365  58.9961079  60.8122964 118.9048537  58.4260296  61.0460793
 117.4162720  58.6082680  61.2529469 107.4467943  61.9578174  54.3039617
 107.3304202  61.2823077  54.9720701 107.5570203  61.4710547  53.4871770
 109.7899484  61.4188321  58.0086306 109.4257692  60.8918942  58.7199228
 110.6466600  61.0286790  57.8352792 115.6948785  52.7082653  65.2717573
 115.3632110  53.5778064  65.0478787 115.0994398  52.3918937  65.9511603
 109.4304971  56.4478220  53.0047655 109.5979374  57.3158457  53.3718126
 109.2402140  56.6105502  52.0808944 112.1880304  64.9095199  64.6713485
 111.8881028  65.8120238  64.5629292 111.8431364  64.6427382  65.5234638
 105.6392786  61.3608996  60.7050190 104.7143282  61.2285210  60.9127881
 105.8877199  62.1403215  61.2020132 115.5877448  57.4277739  62.3510923
 114.6794326  57.3593148  62.0569684 115.5365044  57.9049684  63.1792748
 109.4094192  58.9035878  53.9894322 109.2893817  59.3492929  54.8279802
 108.7146781  59.2521196  53.4307860 103.0001597  61.0042270  61.5393979
 103.1293978  61.2576749  62.4533390 102.3199048  61.5969978  61.2198634
 107.1701084  71.6739520  57.6384453 107.0925114  72.6247345  57.7172934
 106.5662728  71.3285392  58.2959379 109.6618314  58.8467385  70.2945820
 108.8851648  59.4061305  70.2848684 110.3008877  59.3324168  70.8160690
 117.4539095  55.6294178  64.1288796 116.8113475  55.9226711  63.4828591
 116.9494023  55.5147098  64.9341993 115.1079258  59.3757351  54.8174656
 116.0197114  59.6084738  54.6422353 114.5988905  59.9594395  54.2549734
 107.9164686  61.6552838  69.8563787 108.6579371  62.1937882  69.5798610
 107.2101672  62.2819127  70.0135339 113.3920026  63.7981979  68.4535948
 113.8003382  63.3564389  67.7090581 112.6697288  63.2234606  68.7070141
 109.7451096  58.7354586  65.8269505 110.5912291  59.1593999  65.9704154
 109.6849734  58.0788210  66.5208068 113.7148841  64.3583169  62.2088237
 113.0857703  64.5228884  61.5064305 113.3274503  64.7724779  62.9799201
 117.5938073  65.2937607  59.5632601 116.9089111  65.6736509  59.0129634
 117.6781922  65.9032934  60.2964549 112.8950541  56.3958954  67.4850679
 112.6511473  57.1501015  66.9484955 113.1710472  56.7744302  68.3197926
 114.8489004  62.9397566  66.1627945 115.0605899  63.5829326  65.4862326
 114.8018752  62.1059883  65.6949875 112.4515233  55.5515387  63.0664517
 111.5899712  55.8496641  63.3581254 112.4777668  55.7685786  62.1345549
 109.2676803  64.0957578  59.4738322 109.7315148  64.3745281  58.6842945
 109.0033601  63.1941022  59.2911413 106.1600884  63.6429059  62.4118086
 106.7302241  64.0716327  61.7735570 106.7508995  63.3611644  63.1102271
 108.2045689  60.2180730  56.2827887 108.9069732  60.6701774  56.7501814
 107.8726317  59.5764549  56.9107781 106.6526050  58.8092487  70.6579097
 106.0224711  59.4908767  70.8914494 106.5462138  58.6975568  69.7132235
 101.9471023  58.4764283  61.5845021 101.1570077  58.7321811  61.1085132
 102.4382270  59.2912620  61.6897062 115.9634832  65.8169522  64.3350302
 116.7852276  65.4149709  64.0532983 115.9597235  65.7137756  65.2866418
 103.8985768  58.8408862  58.5428498 103.1016931  58.9527556  59.0611993
 103.6711360  59.1795514  57.6769388 109.7291436  65.3653565  66.4911012
 109.7935868  65.8273972  67.3269184 109.0202359  64.7350930  66.6193322
 100.2308726  58.7294773  64.0160012 100.4816764  59.6141783  64.2817588
 100.7668274  58.5499375  63.2435104 109.4439453  67.0321673  56.3589993
 109.3085128  67.8773208  56.7874840 109.9849266  67.2340950  55.5955926
 105.9306793  53.1113252  73.0204348 105.5373738  52.5579451  73.6951992
 106.7472933  53.4223831  73.4110865 102.8968851  64.5497111  56.9317918
 103.4093371  65.3440361  57.0823482 103.5491563  63.8523401  56.8651519
 104.7063735  67.6662867  59.0140671 104.8830364  68.5880832  58.8261655
 105.5020569  67.3521286  59.4435051 108.8474754  54.5271131  70.6124604
 109.5884467  55.1278285  70.5329067 109.0792677  53.7848769  70.0542647
 103.9916092  59.7127499  68.8902834 103.8769607  58.8112756  69.1909933
 103.1360610  59.9591196  68.5387651 111.0707930  67.6545239  70.4890335
 110.6271784  66.8681618  70.1711239 111.7325143  67.8424390  69.8234226
 105.8295051  69.1841041  65.0151013 106.3802476  69.0558104  64.2428007
 104.9906527  69.4835930  64.6645906 113.1689168  67.9348039  68.5171736
 113.1507643  68.7556920  68.0252005 114.0909088  67.8102114  68.7421877
 109.6262222  65.4492168  69.3595244 110.1590559  64.6880457  69.1294552
 109.0976303  65.1565820  70.1019399 112.7931917  50.5552234  64.8888886
 112.4496186  51.4453876  64.8127997 113.1610879  50.3653892  64.0258471
 100.8617767  62.8785765  57.7077488 101.6992989  63.2882773  57.4911196
 101.0396035  61.9385207  57.6777682 112.7582199  60.5460846  53.3961321
 112.2428823  61.3165450  53.6349709 112.4859508  59.8725982  54.0194383
 110.3429311  55.3910546  58.4546560 109.4870907  55.0017397  58.2752198
 110.7556262  55.4702507  57.5946345 111.8728457  52.9256890  62.8538119
 111.3693253  52.8887025  62.0405925 112.1659064  53.8349632  62.9134776
 108.1171343  53.0095619  61.8604301 108.9824340  52.8138428  61.5010191
 108.1848852  52.7805971  62.7873658 117.7316474  63.2993200  55.3314495
 116.9545916  62.9604360  54.8869657 118.4107955  63.3045823  54.6569460
 112.5468503  58.4187938  55.2221102 112.2418638  58.7334087  56.0731246
 113.4998945  58.4969358  55.2648435 110.9914935  64.5778161  56.8714056
 110.4636296  63.8430921  56.5587294 110.4902437  65.3552837  56.6254025
 115.9707781  62.7727181  61.9881103 115.3131455  63.4626443  62.0761231
 116.7748180  63.1623613  62.3315089 105.7233662  55.2397827  59.2320668
 106.2977414  55.0173009  58.4993861 106.3104645  55.3086522  59.9849269
 114.7813239  61.1271554  60.0385044 115.2945121  61.7601546  60.5406754
 115.4314463  60.5272750  59.6728404 106.0503249  57.2702288  53.2516553
 105.2140561  57.6076975  53.5725828 105.9108019  57.1351268  52.3143690
 108.0256330  52.1139076  57.9595737 107.3720742  51.7988093  57.3352352
 107.9836804  51.4914817  58.6855560 109.1367535  62.3958371  49.8749029
 108.2294596  62.1647625  50.0740178 109.6338567  61.5995990  50.0623011
 112.0435614  71.1055878  52.7945716 111.3697312  71.4087575  53.4030673
 112.4301436  71.9084959  52.4451173 111.2594070  58.6021010  62.2843385
 110.3416632  58.8235957  62.1265073 111.6754214  58.6767320  61.4255092
 112.0429118  60.0012425  57.4146065 112.7900937  60.5133823  57.1053187
 112.3120708  59.6796478  58.2750459 110.3155768  62.4970966  54.3973020
 109.4066987  62.2129999  54.4945489 110.3450852  62.9170045  53.5376326
 115.5475036  66.1077556  58.1664187 115.0937363  65.2668465  58.2229378
 114.9169002  66.7438954  58.5038967 114.4907955  57.0369542  59.3964855
 113.7530712  56.5246928  59.7275097 114.7434729  56.5969923  58.5848131
 113.9907975  67.9454052  59.1014005 114.2830949  68.5059109  58.3826371
 114.5006595  68.2382613  59.8567164 114.5919582  49.8145794  59.9906624
 114.8978459  48.9543157  59.7032539 115.3172187  50.4063414  59.7905618
 100.8843939  60.2176480  58.3788222 100.6868338  59.6245841  57.6539288
 100.3290603  59.9128690  59.0964161 108.8640662  60.1099587  60.4982815
 108.9189272  59.1573423  60.4225291 108.0531864  60.2659026  60.9824113
 110.0131856  64.0379710  51.7361098 109.5751286  63.3215569  51.2766735
 110.7542297  64.2655825  51.1746190 106.8033022  58.7276646  58.2573194
 105.9900888  59.0270817  58.6638386 107.2992016  58.3332335  58.9747676
 108.9541600  68.7234403  60.1907458 108.9117779  68.9495250  59.2615990
 109.8704299  68.4897778  60.3393260 112.4007234  59.1918471  67.0888088
 112.7556622  59.4189944  67.9482553 113.0479365  59.5236848  66.4665343
 118.1304971  62.3136907  57.7937417 117.9922869  62.5038503  56.8658606
 117.7741190  63.0756290  58.2505468 106.2947097  56.2995002  63.8734429
 106.9346476  56.1583761  63.1757392 105.4624627  56.0129515  63.4973031
 118.1574350  64.3813434  62.8048688 118.5910857  64.2888723  63.6531742
 118.8705931  64.3570934  62.1668704 107.0707401  65.5997432  59.9869421
 107.8647999  65.1047753  59.7851996 106.3599093  65.0715296  59.6237127
 111.8902245  67.9815528  64.3381789 111.9439268  68.5506464  65.1059505
 111.0217027  68.1517413  63.9735826 103.3790164  59.7440514  56.0629174
 102.4487752  59.6824970  56.2799136 103.4747636  59.2216467  55.2665815
 103.2975713  56.2695327  58.6507416 103.5582531  57.1840660  58.5416576
 104.1192886  55.8019770  58.8004028 104.7700639  57.6833084  65.8206240
 105.4423692  57.4750446  65.1718889 103.9430425  57.4855170  65.3811472
 119.0189900  64.4237134  65.3381574 119.2125790  65.3282945  65.5840849
 118.9190518  63.9644554  66.1720159 110.6726211  54.3095025  67.8371901
 110.0254126  55.0084975  67.7436377 111.4427226  54.7431169  68.2048149
 114.0805009  64.5743877  70.9122454 113.9290515  64.3454429  69.9952538
 114.0709688  65.5314479  70.9253799 110.8490345  62.1475790  65.8968721
 111.7782405  62.2986950  65.7237688 110.4281375  62.2359811  65.0417367
 109.6478677  66.1726454  63.6667258 109.5089762  65.8045239  64.5393196
 108.8593273  66.6874094  63.4951216 110.2426829  71.2735551  55.0092795
 110.4178584  70.8023594  55.8238417 109.5559617  71.9001317  55.2374056
 111.1983892  65.5508057  61.0556096 110.8633725  65.5108827  61.9513746
 110.6987838  64.8852773  60.5826506 105.1728136  60.9575687  66.5808677
 105.0347934  60.2255926  67.1820216 106.0833059  60.8684587  66.2992865
 114.1343084  62.8964091  51.3293156 113.5172254  62.1710920  51.2326208
 113.6659572  63.6573452  50.9860230 107.8010437  60.6695646  66.0692357
 108.5110055  60.0288839  66.0278975 107.7579745  60.9208541  66.9918538
 115.7897215  67.6063000  68.9898936 115.7309761  66.9222220  68.3229519
 116.1916734  68.3481990  68.5379562 106.5139371  57.6560864  67.8887996
 105.9776728  57.2051603  68.5409593 105.9256079  57.7906773  67.1458461
 104.8087914  74.4224914  61.7832655 105.0484512  75.0543438  62.4611674
 103.9657110  74.0712954  62.0698014 105.9241629  57.1149516  50.4514460
 105.0471096  56.9938316  50.0876707 106.3999383  56.3235594  50.1993349
 115.7914622  65.5702584  67.2212916 114.9041401  65.2328505  67.3439315
 116.3613174  64.8385615  67.4581681  97.4443770  61.9026675  60.5455967
  98.1314809  61.5888405  59.9576982  97.2891898  62.8068040  60.2723219
 102.2478492  56.7916872  64.9740991 102.1636680  56.1842542  64.2391401
 101.4261198  57.2825890  64.9750487 109.3215776  70.2304036  64.1874159
 109.2485947  71.0359008  64.6993463 108.8793169  70.4296002  63.3622180
 109.1105555  69.4675806  57.6976980 108.3273077  70.0097486  57.7915205
 109.8098301  69.9849786  58.0971222 112.4202206  55.2770436  60.3411186
 112.9170905  54.5240398  60.0212256 111.6489187  55.3134752  59.7754395
 120.2731963  60.9810801  61.9829477 120.2621839  61.8635516  61.6123410
 119.4049342  60.6282352  61.7884014 111.7814459  70.1290870  66.3432318
 112.4942432  70.7638335  66.2708219 111.2904488  70.2254736  65.5272319
 113.5031986  64.0342123  57.9149609 112.5688265  64.1543585  57.7454314
 113.6808655  63.1314590  57.6509619 109.0037174  57.4187819  60.0682870
 108.6334962  56.8658859  60.7563776 109.4996267  56.8145952  59.5157871
 116.8904538  59.8759442  58.4499643 117.3564990  60.7087434  58.3759946
 117.3412038  59.4104424  59.1544902 106.8326373  67.8785314  67.1637888
 107.5335832  68.5121796  67.3167283 106.3621488  68.2200045  66.4033528
 114.9580769  66.2203263  55.4485795 115.2340613  66.1059858  56.3579670
 114.0885267  65.8220748  55.4097969 114.8621200  52.2440029  62.4890545
 113.9484280  52.4744256  62.6572752 115.2914302  52.3278473  63.3404577
 114.6327659  60.4329921  64.9890439 113.9799109  60.6805828  64.3342892
 115.0108039  59.6194059  64.6552916 111.5934833  70.4689614  59.0918609
 111.7757227  69.6511270  59.5546361 112.4167819  70.6857306  58.6543499
 111.9276998  69.3957799  56.3533658 112.4564765  68.8850254  55.7403820
 112.1905218  69.0800330  57.2179191 110.6815232  61.1749732  71.4756476
 110.0055869  61.0743861  72.1458851 111.5042866  61.0188946  71.9392473
 102.4294091  67.4121669  64.0968991 103.0147528  66.6665356  64.2296895
 102.2318929  67.7225625  64.9805655 105.2832746  70.4472916  59.1131433
 104.6143121  70.9319044  58.6295474 105.1445616  70.6942136  60.0274812
  97.0211746  59.9827269  62.8173434  97.0595845  59.4490859  63.6110552
  96.5152039  59.4562474  62.1984411 109.4238015  72.4816659  65.7114092
 109.9756323  72.6448281  66.4763177 109.7644208  73.0721097  65.0394117
 104.4002508  54.8291809  66.3135977 104.4643835  55.6906640  65.9013374
 104.3369628  54.2165811  65.5808335 103.8754781  56.9014942  69.9609011
 104.5026819  56.5192019  70.5746535 103.0182699  56.6829144  70.3264703
 114.2748889  67.3077917  71.5662746 114.8188793  67.9207875  71.0717701
 113.6935734  67.8657495  72.0829759 100.6520323  58.7091371  55.8927366
 100.9473764  57.8002049  55.8394419  99.7508359  58.6879110  55.5708368
 112.5606402  70.4298635  62.6977774 112.4357542  69.6288375  62.1888719
 113.2185493  70.9244828  62.2091744 104.1814570  56.7847368  61.8754914
 103.4601156  57.3983335  61.7362388 104.9707826  57.3205132  61.7971560
 114.6241310  68.2307655  64.3257324 113.6771646  68.1113006  64.2535651
 114.9724084  67.3430153  64.4083586 106.9840884  54.1201794  68.1495566
 107.5075286  54.3664091  68.9121875 106.7653217  54.9521829  67.7298703
 102.3808165  56.3905469  56.0166691 102.0520871  55.5102848  55.8341797
 102.7347536  56.3353137  56.9043080 111.6287744  68.0260371  60.5261676
 111.4812706  67.0977079  60.7069246 112.4541237  68.0480462  60.0418752
 105.4949988  56.6778438  56.3842168 105.8346061  57.2064360  55.6620777
 105.9422109  57.0158845  57.1600735 115.2321866  68.8488930  61.6126549
 116.1568413  68.6431791  61.4751000 115.0637169  68.6005331  62.5215891
 108.1893429  55.0615489  65.8345237 107.8490249  54.2623302  66.2365916
 107.4832435  55.3617200  65.2622070 108.8409901  52.1464802  64.2872560
 109.6635970  51.6725280  64.1651450 109.0847964  52.9255285  64.7871246
 107.4818135  55.1753060  54.5835461 108.2026498  55.5534313  54.0799178
 106.8583439  55.8941937  54.6870439 111.6249258  55.8798209  55.5193794
 111.8412872  56.7622847  55.2182622 111.1443325  55.4884422  54.7899436
 106.3648479  58.8383922  62.0964538 106.2193060  59.1524225  62.9888820
 105.8873683  59.4568823  61.5435437 108.2244862  55.8286470  62.1445428
 108.2106431  54.9327563  61.8077726 108.9417290  55.8357134  62.7783714
 110.0770993  56.2623810  64.1898555 109.8188771  57.1840881  64.1882886
 109.5456033  55.8654245  64.8799019 115.0217182  69.3674597  56.9688641
 115.1954059  68.8021020  56.2162493 115.5146073  70.1675492  56.7868130
 100.8394142  61.3789267  65.0352199 100.2947610  62.1549075  65.1672474
 101.7173491  61.7260071  64.8771321 107.6281758  54.7100850  57.4132998
 107.7497669  53.7817497  57.6123885 107.3383801  54.7239536  56.5011313
 110.4972949  52.3955761  60.5499718 110.5194645  52.4595094  59.5951697
 110.9141008  51.5560270  60.7440224 120.8756573  62.1311020  58.5878940
 121.3187719  61.3818346  58.1898064 119.9983083  62.1221157  58.2052672
 116.0092354  68.6841362  54.0685539 116.7043259  69.3048055  54.2872853
 116.3515504  67.8336713  54.3437917 101.6260163  60.5059163  67.9282356
 100.8841900  60.6541798  68.5146987 101.3052908  60.7667428  67.0649106
 117.9083777  66.1341067  55.5972870 118.4335102  66.4728340  54.8722190
 117.8206130  65.1988083  55.4136004 109.5703826  70.0475141  67.7262746
 109.8790953  69.8024288  68.5985446 110.3679308  70.2521780  67.2381616
 109.5924438  72.2013051  59.9568123 109.1529428  71.7089429  60.6500979
 110.3432555  71.6586018  59.7160198 102.0716777  68.3924592  59.9592751
 102.8974797  68.0928363  59.5791394 101.7210829  67.6232214  60.4082540
 107.0398310  67.7451060  62.0290424 106.4178320  67.0821765  61.7292652
 107.7103177  67.7712192  61.3464072 100.2725382  66.3110918  60.9181684
  99.4357291  65.8833092  60.7365686 100.2449028  66.5043361  61.8552476
 107.1122838  56.2232848  71.6222930 107.1610993  57.0994971  71.2400700
 107.6545352  55.6810241  71.0494574 117.5977683  66.7673971  70.9024068
 116.8073227  66.7498110  70.3628567 117.3611038  67.3062265  71.6573104
 117.7175559  63.6166437  68.2156796 117.7673563  63.4516445  69.1572319
 117.6089482  62.7493696  67.8254677 106.6011817  66.2954983  55.5048885
 106.7499938  66.9790448  54.8515558 107.4078261  66.2760073  56.0198341
 115.0079321  59.5997365  69.5316103 115.9089184  59.4603830  69.2400101
 115.0827295  59.7651820  70.4714280 109.3422126  56.9764220  68.3769289
 108.4725436  57.2697786  68.1051878 109.5781607  57.5604665  69.0976553
 119.2193755  66.0363379  68.4598818 118.9278564  66.3993360  69.2962279
 118.6065887  65.3230387  68.2812150 120.4189438  63.6016259  60.9801388
 121.2536329  64.0406063  61.1438948 120.5548566  63.1254912  60.1609634
 117.4680944  61.1595994  66.9278876 117.9435065  61.3523640  66.1197727
 116.5446509  61.2155179  66.6822259 104.3564450  62.3220161  56.5109954
 104.1110492  61.4182491  56.7090164 104.5260365  62.3237311  55.5689432
 112.0461160  53.1943837  65.8934710 112.5643104  53.9304864  65.5681198
 111.6916293  53.5007830  66.7281469 103.6260098  58.0548518  54.0096115
 102.9329343  58.1292873  53.3536151 103.3811850  57.2908862  54.5317632
 112.2973754  49.6144120  61.4135606 112.5775508  48.9467309  62.0396033
 113.0824361  49.8073215  60.9010270 110.1007223  68.7903114  52.9760632
 109.5281190  69.4093301  52.5231104 110.6740016  69.3402475  53.5100554
 116.1682613  58.0361754  65.1607181 117.1200035  58.1359851  65.1819405
 115.9986063  57.2440022  65.6705266 114.1896992  55.1217337  65.3466582
 113.5946924  55.4022350  64.6513071 113.9046689  55.6111238  66.1183323
 113.3204483  69.0740264  54.1069215 114.2535156  69.0085825  54.3102090
 113.2327695  69.9096531  53.6483747 115.9492499  68.3906134  51.0673162
 115.8706131  68.0565998  51.9608920 116.7702166  68.8827902  51.0664635
 118.6470690  61.2567873  64.2749481 118.6147010  60.3183874  64.4609165
 119.2571314  61.3351910  63.5415306 110.4854021  60.1263926  50.3176685
 111.4313126  59.9970134  50.3865103 110.1068266  59.3878588  50.7946113
 118.7965179  58.0478917  64.3207764 118.2804228  57.2637373  64.1337693
 119.6805127  57.7197633  64.4854284 116.4575906  51.7919932  60.2803577
 116.2600727  51.4835021  61.1646909 117.0675611  52.5181571  60.4101507
 110.3692714  64.1781672  71.7777342 111.2895723  64.3560271  71.9717388
 110.3342297  63.2337718  71.6257041 108.6696938  58.0513903  50.2531570
 107.7628394  57.7547015  50.3294284 108.9472919  57.7543721  49.3865856
  99.5874879  59.3720266  60.7030617  99.2677663  58.5185574  60.4104991
  99.0408307  59.5868844  61.4588584 103.3654786  62.0882707  64.4200123
 103.5840796  63.0199815  64.4388157 103.7780560  61.7290682  65.2054927
 110.2859004  52.5950792  56.4075811 109.4759732  52.2497877  56.7831057
 110.9743421  52.2858336  56.9963423 112.2149552  51.6728839  58.0300108
 112.7680591  52.0924293  58.6890131 112.4519639  50.7464587  58.0723064
 108.2382652  57.6615913  73.8102872 108.1379379  58.6110270  73.7414963
 108.0204194  57.3334152  72.9378942 107.4395723  54.9100838  50.3943549
 108.3014887  55.2355736  50.6539367 107.6246067  54.1232334  49.8816615
  99.4563139  62.9923178  62.6723738  98.7626610  62.5777130  62.1593693
 100.2036130  63.0343714  62.0757157 115.5928359  53.7829364  57.5378772
 115.0127029  54.4414168  57.1556825 115.3264292  52.9606709  57.1266190
 114.0431926  53.1834422  59.7400093 114.5431704  53.2950957  58.9314411
 114.6867534  52.8795475  60.3800901 108.1013922  61.0913052  72.6267934
 107.6181003  61.8913412  72.8331823 108.1874861  61.1020997  71.6735378
 101.3699881  62.9241431  60.5489753 101.3470569  63.0229119  59.5971636
 101.6800518  63.7706582  60.8706919 104.0287259  64.9817586  64.6636367
 104.9830513  64.9501529  64.5966299 103.8299783  64.5208210  65.4786593
 104.6186641  63.5518702  67.2307165 105.4379530  64.0462781  67.2542002
 104.8923449  62.6350671  67.2024733 114.3753238  55.9429455  56.5935121
 113.4879093  56.2279105  56.3755315 114.7907227  55.7823218  55.7462397
 117.7267774  55.9675976  60.3089460 118.5028164  56.4572428  60.5814077
 117.0015908  56.3934030  60.7661329 120.1640332  56.6803595  61.3663400
 120.7584823  56.4399331  60.6556709 120.2366916  55.9610726  61.9936937
 102.3837488  70.5237206  61.6806565 102.2491956  69.7637607  61.1144563
 101.9669550  71.2478106  61.2135354 113.5196451  65.7074129  50.6883141
 114.2232301  65.9124132  51.3040796 112.7959100  66.2750891  50.9532224
 114.3494261  61.4583991  56.8085411 114.2929463  61.9152542  55.9693043
 114.9022604  60.6974675  56.6308253 118.1599067  57.2473723  57.6335530
 117.9036001  56.8470358  58.4643738 117.5351935  57.9617517  57.5085669
 122.4711405  59.9869796  60.1406822 121.9110963  60.0562985  60.9138384
 121.8654908  59.8110780  59.4206318 105.5406614  71.4206523  61.8925008
 105.4238998  72.3651955  61.7903698 104.7199060  71.1180084  62.2810807
 115.4283148  66.1456659  52.7381601 116.2628752  65.7137857  52.5559075
 115.2667491  65.9738672  53.6658495 115.0829041  62.6488772  54.1037940
 115.0277844  62.4833043  53.1626384 114.4575096  63.3564805  54.2600130
  99.8721556  57.8856836  67.9299362 100.5180419  57.3755790  68.4186587
  99.6638707  58.6225518  68.5042787 112.3974948  64.9537684  73.4291503
 113.2666107  65.1278336  73.0678138 111.9181699  65.7732101  73.3067232
 108.3925166  52.1496881  53.6823258 108.3803836  53.0938721  53.8391529
 109.2848588  51.9667026  53.3882720 106.5661128  72.0734785  65.1080936
 107.4688375  72.1058395  65.4247431 106.3398498  71.1435236  65.1227272
 108.3214730  70.8265771  61.7691015 107.3710361  70.8267633  61.6555387
 108.6247216  70.0798506  61.2527050 112.2077285  48.7439658  57.9369195
 111.4409681  48.1898144  58.0825877 112.6187990  48.8161526  58.7983347
 104.2119047  55.0324453  72.0274376 105.0750508  54.6761258  72.2377701
 103.6384457  54.6938348  72.7149781 120.8657130  76.6153738  62.7698302
 120.5275641  76.4994803  61.8818837 121.7346898  76.2144903  62.7499308
 116.7243945  78.4689214  58.7595193 116.1608811  78.3779151  57.9911481
 116.6096341  77.6489119  59.2397686 121.3476913  77.7688590  68.7284508
 121.3365554  77.3741388  67.8565011 121.5097552  77.0354662  69.3218279
 114.2708377  79.9640406  61.5979413 115.0629669  79.6231231  61.1825713
 114.5105028  80.0735381  62.5181567 116.2299131  79.2249319  54.4696792
 117.0030007  78.6778306  54.3309668 116.5824530  80.0893568  54.6811254
 118.0684174  80.5525701  67.6763692 117.7774040  81.4571332  67.5610358
 118.7041158  80.5942229  68.3907761 118.9940381  77.9302550  64.2665051
 119.5903953  77.7058572  63.5522014 119.0515352  77.1887295  64.8690499
 118.5665409  75.3841985  52.1015242 118.8190930  74.8623507  51.3398705
 117.6289968  75.2208131  52.2041926 118.2861698  77.2870091  54.3039617
 118.1697956  76.6114995  54.9720701 118.3963958  76.8002465  53.4871770
 120.6293239  76.7480238  58.0086306 120.2651446  76.2210859  58.7199228
 121.4860355  76.3578707  57.8352792 120.2698726  71.7770138  53.0047655
 120.4373128  72.6450374  53.3718126 120.0795895  71.9397420  52.0808944
 116.4786540  76.6900914  60.7050190 115.5537037  76.5577128  60.9127881
 116.7270954  77.4695133  61.2020132 120.2487947  74.2327796  53.9894322
 120.1287572  74.6784846  54.8279802 119.5540535  74.5813113  53.4307860
 113.8395352  76.3334187  61.5393979 113.9687733  76.5868666  62.4533390
 113.1592803  76.9261895  61.2198634 118.0094839  87.0031437  57.6384453
 117.9318868  87.9539262  57.7172934 117.4056482  86.6577310  58.2959379
 120.5012069  74.1759303  70.2945820 119.7245403  74.7353223  70.2848684
 121.1402632  74.6616086  70.8160690 118.7558441  76.9844756  69.8563787
 119.4973125  77.5229800  69.5798610 118.0495426  77.6111045  70.0135339
 120.5844851  74.0646503  65.8269505 121.4306046  74.4885917  65.9704154
 120.5243488  73.4080128  66.5208068 120.1070557  79.4249495  59.4738322
 120.5708903  79.7037198  58.6842945 119.8427355  78.5232940  59.2911413
 116.9994638  78.9720977  62.4118086 117.5695995  79.4008245  61.7735570
 117.5902750  78.6903561  63.1102271 119.0439443  75.5472648  56.2827887
 119.7463486  75.9993691  56.7501814 118.7120072  74.9056466  56.9107781
 117.4919805  74.1384404  70.6579097 116.8618465  74.8200685  70.8914494
 117.3855892  74.0267486  69.7132235 112.7864777  73.8056200  61.5845021
 111.9963831  74.0613729  61.1085132 113.2776024  74.6204538  61.6897062
 114.7379522  74.1700780  58.5428498 113.9410686  74.2819474  59.0611993
 114.5105115  74.5087432  57.6769388 120.5685190  80.6945483  66.4911012
 120.6329623  81.1565890  67.3269184 119.8596114  80.0642848  66.6193322
 111.0702480  74.0586691  64.0160012 111.3210518  74.9433701  64.2817588
 111.6062028  73.8791292  63.2435104 120.2833208  82.3613590  56.3589993
 120.1478882  83.2065126  56.7874840 120.8243020  82.5632868  55.5955926
 116.7700547  68.4405170  73.0204348 116.3767493  67.8871369  73.6951992
 117.5866688  68.7515749  73.4110865 113.7362605  79.8789028  56.9317918
 114.2487126  80.6732279  57.0823482 114.3885318  79.1815319  56.8651519
 115.5457490  82.9954785  59.0140671 115.7224118  83.9172749  58.8261655
 116.3414323  82.6813204  59.4435051 119.6868508  69.8563049  70.6124604
 120.4278222  70.4570202  70.5329067 119.9186431  69.1140687  70.0542647
 114.8309846  75.0419416  68.8902834 114.7163361  74.1404674  69.1909933
 113.9754364  75.2883113  68.5387651 116.6688805  84.5132958  65.0151013
 117.2196230  84.3850022  64.2428007 115.8300281  84.8127847  64.6645906
 120.4655976  80.7784086  69.3595244 120.9984313  80.0172374  69.1294552
 119.9370057  80.4857738  70.1019399 111.7011522  78.2077683  57.7077488
 112.5386744  78.6174691  57.4911196 111.8789790  77.2677125  57.6777682
 121.1823065  70.7202464  58.4546560 120.3264661  70.3309314  58.2752198
 121.5950017  70.7994425  57.5946345 118.9565098  68.3387537  61.8604301
 119.8218094  68.1430346  61.5010191 119.0242606  68.1097889  62.7873658
 121.8308689  79.9070079  56.8714056 121.3030051  79.1722838  56.5587294
 121.3296192  80.6844755  56.6254025 116.5627417  70.5689745  59.2320668
 117.1371169  70.3464926  58.4993861 117.1498399  70.6378439  59.9849269
 116.8897004  72.5994206  53.2516553 116.0534316  72.9368892  53.5725828
 116.7501773  72.4643186  52.3143690 118.8650084  67.4430994  57.9595737
 118.2114497  67.1280011  57.3352352 118.8230558  66.8206734  58.6855560
 119.9761289  77.7250289  49.8749029 119.0688351  77.4939542  50.0740178
 120.4732321  76.9287908  50.0623011 121.1549523  77.8262884  54.3973020
 120.2460742  77.5421917  54.4945489 121.1844606  78.2461962  53.5376326
 111.7237693  75.5468398  58.3788222 111.5262093  74.9537759  57.6539288
 111.1684357  75.2420608  59.0964161 119.7034417  75.4391504  60.4982815
 119.7583026  74.4865341  60.4225291 118.8925619  75.5950943  60.9824113
 120.8525610  79.3671627  51.7361098 120.4145040  78.6507486  51.2766735
 121.5936051  79.5947742  51.1746190 117.6426777  74.0568564  58.2573194
 116.8294642  74.3562735  58.6638386 118.1385771  73.6624253  58.9747676
 119.7935354  84.0526321  60.1907458 119.7511533  84.2787167  59.2615990
 120.7098053  83.8189696  60.3393260 117.1340851  71.6286920  63.8734429
 117.7740231  71.4875679  63.1757392 116.3018382  71.3421433  63.4973031
 117.9101155  80.9289350  59.9869421 118.7041754  80.4339670  59.7851996
 117.1992848  80.4007213  59.6237127 114.2183919  75.0732432  56.0629174
 113.2881507  75.0116887  56.2799136 114.3141391  74.5508385  55.2665815
 114.1369468  71.5987245  58.6507416 114.3976285  72.5132578  58.5416576
 114.9586640  71.1311687  58.8004028 115.6094393  73.0125002  65.8206240
 116.2817447  72.8042364  65.1718889 114.7824180  72.8147088  65.3811472
 121.5119965  69.6386943  67.8371901 120.8647880  70.3376892  67.7436377
 122.2820981  70.0723087  68.2048149 120.4872431  81.5018372  63.6667258
 120.3483517  81.1337156  64.5393196 119.6987027  82.0166011  63.4951216
 121.0820583  86.6027469  55.0092795 121.2572339  86.1315512  55.8238417
 120.3953371  87.2293235  55.2374056 122.0377646  80.8799975  61.0556096
 121.7027479  80.8400745  61.9513746 121.5381592  80.2144691  60.5826506
 116.0121890  76.2867605  66.5808677 115.8741688  75.5547844  67.1820216
 116.9226814  76.1976505  66.2992865 118.6404191  75.9987564  66.0692357
 119.3503810  75.3580756  66.0278975 118.5973499  76.2500459  66.9918538
 117.3533125  72.9852782  67.8887996 116.8170482  72.5343520  68.5409593
 116.7649833  73.1198691  67.1458461 115.6481668  89.7516831  61.7832655
 115.8878267  90.3835355  62.4611674 114.8050865  89.4004871  62.0698014
 116.7635384  72.4441433  50.4514460 115.8864850  72.3230234  50.0876707
 117.2393137  71.6527512  50.1993349 108.2837524  77.2318593  60.5455967
 108.9708564  76.9180323  59.9576982 108.1285653  78.1359958  60.2723219
 113.0872246  72.1208790  64.9740991 113.0030435  71.5134459  64.2391401
 112.2654953  72.6117808  64.9750487 120.1609530  85.5595954  64.1874159
 120.0879702  86.3650925  64.6993463 119.7186923  85.7587920  63.3622180
 119.9499310  84.7967724  57.6976980 119.1666832  85.3389404  57.7915205
 120.6492055  85.3141703  58.0971222 119.8430929  72.7479736  60.0682870
 119.4728716  72.1950777  60.7563776 120.3390021  72.1437870  59.5157871
 117.6720127  83.2077231  67.1637888 118.3729587  83.8413714  67.3167283
 117.2015242  83.5491963  66.4033528 121.5208986  76.5041650  71.4756476
 120.8449623  76.4035779  72.1458851 122.3436620  76.3480863  71.9392473
 113.2687845  82.7413586  64.0968991 113.8541282  81.9957274  64.2296895
 113.0712684  83.0517543  64.9805655 116.1226501  85.7764834  59.1131433
 115.4536876  86.2610961  58.6295474 115.9839370  86.0234054  60.0274812
 107.8605500  75.3119186  62.8173434 107.8989600  74.7782777  63.6110552
 107.3545793  74.7854392  62.1984411 120.2631769  87.8108577  65.7114092
 120.8150077  87.9740199  66.4763177 120.6037963  88.4013015  65.0394117
 115.2396263  70.1583727  66.3135977 115.3037589  71.0198558  65.9013374
 115.1763383  69.5457729  65.5808335 114.7148535  72.2306860  69.9609011
 115.3420574  71.8483937  70.5746535 113.8576454  72.0121061  70.3264703
 111.4914078  74.0383289  55.8927366 111.7867519  73.1293967  55.8394419
 110.5902114  74.0171028  55.5708368 115.0208325  72.1139285  61.8754914
 114.2994911  72.7275253  61.7362388 115.8101581  72.6497050  61.7971560
 117.8234638  69.4493712  68.1495566 118.3469040  69.6956008  68.9121875
 117.6046972  70.2813747  67.7298703 113.2201919  71.7197386  56.0166691
 112.8914626  70.8394765  55.8341797 113.5741290  71.6645055  56.9043080
 116.3343743  72.0070356  56.3842168 116.6739815  72.5356277  55.6620777
 116.7815863  72.3450762  57.1600735 119.0287183  70.3907407  65.8345237
 118.6884004  69.5915220  66.2365916 118.3226190  70.6909118  65.2622070
 119.6803655  67.4756719  64.2872560 120.5029725  67.0017197  64.1651450
 119.9241719  68.2547203  64.7871246 118.3211890  70.5044978  54.5835461
 119.0420252  70.8826230  54.0799178 117.6977194  71.2233854  54.6870439
 117.2042234  74.1675840  62.0964538 117.0586815  74.4816143  62.9888820
 116.7267438  74.7860740  61.5435437 119.0638617  71.1578388  62.1445428
 119.0500186  70.2619481  61.8077726 119.7811045  71.1649052  62.7783714
 120.9164748  71.5915728  64.1898555 120.6582525  72.5132799  64.1882886
 120.3849788  71.1946163  64.8799019 111.6787896  76.7081184  65.0352199
 111.1341364  77.4840992  65.1672474 112.5567246  77.0551989  64.8771321
 118.4675513  70.0392768  57.4132998 118.5891424  69.1109414  57.6123885
 118.1777555  70.0531454  56.5011313 121.3366703  67.7247679  60.5499718
 121.3588400  67.7887012  59.5951697 121.7534762  66.8852187  60.7440224
 112.4653918  75.8351081  67.9282356 111.7235654  75.9833716  68.5146987
 112.1446662  76.0959346  67.0649106 120.4097581  85.3767059  67.7262746
 120.7184707  85.1316206  68.5985446 121.2073063  85.5813697  67.2381616
 120.4318193  87.5304968  59.9568123 119.9923183  87.0381347  60.6500979
 121.1826310  86.9877936  59.7160198 112.9110532  83.7216509  59.9592751
 113.7368552  83.4220281  59.5791394 112.5604584  82.9524132  60.4082540
 117.8792065  83.0742977  62.0290424 117.2572074  82.4113682  61.7292652
 118.5496932  83.1004109  61.3464072 111.1119137  81.6402836  60.9181684
 110.2751045  81.2125010  60.7365686 111.0842782  81.8335279  61.8552476
 117.9516592  71.5524765  71.6222930 118.0004748  72.4286888  71.2400700
 118.4939107  71.0102159  71.0494574 117.4405572  81.6246901  55.5048885
 117.5893692  82.3082365  54.8515558 118.2472015  81.6051991  56.0198341
 120.1815881  72.3056138  68.3769289 119.3119190  72.5989704  68.1051878
 120.4175361  72.8896583  69.0976553 115.1958205  77.6512078  56.5109954
 114.9504247  76.7474408  56.7090164 115.3654119  77.6529229  55.5689432
 114.4653852  73.3840436  54.0096115 113.7723097  73.4584791  53.3536151
 114.2205604  72.6200780  54.5317632 120.9400977  84.1195031  52.9760632
 120.3674944  84.7385218  52.5231104 121.5133771  84.6694393  53.5100554
 121.3247776  75.4555844  50.3176685 122.2706880  75.3262052  50.3865103
 120.9462021  74.7170506  50.7946113 121.2086468  79.5073590  71.7777342
 122.1289478  79.6852189  71.9717388 121.1736051  78.5629636  71.6257041
 119.5090693  73.3805820  50.2531570 118.6022148  73.0838933  50.3294284
 119.7866674  73.0835638  49.3865856 110.4268633  74.7012184  60.7030617
 110.1071418  73.8477492  60.4104991 109.8802061  74.9160762  61.4588584
 114.2048541  77.4174625  64.4200123 114.4234551  78.3491733  64.4388157
 114.6174315  77.0582599  65.2054927 121.1252759  67.9242710  56.4075811
 120.3153487  67.5789795  56.7831057 121.8137176  67.6150254  56.9963423
 119.0776406  72.9907831  73.8102872 118.9773133  73.9402188  73.7414963
 118.8597948  72.6626069  72.9378942 118.2789478  70.2392756  50.3943549
 119.1408642  70.5647654  50.6539367 118.4639822  69.4524252  49.8816615
 110.2956893  78.3215095  62.6723738 109.6020365  77.9069048  62.1593693
 111.0429884  78.3635632  62.0757157 118.9407676  76.4204969  72.6267934
 118.4574758  77.2205330  72.8331823 119.0268615  76.4312914  71.6735378
 112.2093636  78.2533349  60.5489753 112.1864324  78.3521036  59.5971636
 112.5194272  79.0998500  60.8706919 114.8681014  80.3109504  64.6636367
 115.8224267  80.2793446  64.5966299 114.6693537  79.8500128  65.4786593
 115.4580396  78.8810620  67.2307165 116.2773285  79.3754699  67.2542002
 115.7317204  77.9642588  67.2024733 113.2231242  85.8529124  61.6806565
 113.0885710  85.0929524  61.1144563 112.8063305  86.5770023  61.2135354
 116.3800368  86.7498441  61.8925008 116.2632752  87.6943873  61.7903698
 115.5592815  86.4472002  62.2810807 110.7115310  73.2148754  67.9299362
 111.3574174  72.7047708  68.4186587 110.5032461  73.9517436  68.5042787
 119.2318921  67.4788799  53.6823258 119.2197590  68.4230639  53.8391529
 120.1242342  67.2958944  53.3882720 117.4054882  87.4026703  65.1080936
 118.3082129  87.4350313  65.4247431 117.1792253  86.4727153  65.1227272
 119.1608484  86.1557689  61.7691015 118.2104115  86.1559551  61.6555387
 119.4640971  85.4090424  61.2527050 115.0512801  70.3616371  72.0274376
 115.9144263  70.0053176  72.2377701 114.4778212  70.0230266  72.7149781
 121.9096235  89.3878608  64.0160012 122.1604273  90.2725618  64.2817588
 122.4455783  89.2083210  63.2435104 119.1231279  92.5610511  60.5455967
 119.8102318  92.2472241  59.9576982 118.9679407  93.4651875  60.2723219
 118.6999255  90.6411104  62.8173434 118.7383354  90.1074695  63.6110552
 118.1939548  90.1146310  62.1984411 121.9512891  96.9694753  60.9181684
 121.1144799  96.5416928  60.7365686 121.9236537  97.1627197  61.8552476
 121.2662388  90.0304101  60.7030617 120.9465172  89.1769410  60.4104991
 120.7195816  90.2452680  61.4588584 121.1350648  93.6507013  62.6723738
 120.4414119  93.2360966  62.1593693 121.8823639  93.6927549  62.0757157
 121.5509065  88.5440672  67.9299362 122.1967928  88.0339626  68.4186587
 121.3426216  89.2809353  68.5042787  74.6519822   2.6925889  44.3629760
  74.5743852   3.6433714  44.4418240  74.0481466   2.3471762  45.0204686
  72.2906652   5.4411283  48.5077962  72.5303250   6.0729807  49.1856980
  71.4475848   5.0899323  48.7943321  72.7651484   1.4659286  45.8376740
  72.0961859   1.9505413  45.3540780  72.6264354   1.7128506  46.7520119
  76.9056753   3.5003029  52.4359398  77.4575061   3.6634651  53.2008484
  77.2462946   4.0907467  51.7639423  77.0743176   3.2199420  46.6813429
  76.6348166   2.7275799  47.3746286  77.8251293   2.6772388  46.4405505
  69.8656226   1.5423575  48.4051872  69.7310694   0.7823976  47.8389870
  69.4488288   2.2664475  47.9380661  73.0225352   2.4392893  48.6170315
  72.9057736   3.3838325  48.5149005  72.2017798   2.1366454  49.0056114
  74.0479866   3.0921154  51.8326243  74.9507112   3.1244765  52.1492738
  73.8217236   2.1621605  51.8472579  88.3475868   7.6340107  49.4943609
  88.0094379   7.5181172  48.6064144  89.2165636   7.2331273  49.4744615
  84.2062683   9.4875584  45.4840500  83.6427548   9.3965521  44.7156787
  84.0915078   8.6675488  45.9642992  88.8295651   8.7874959  55.4529814
  88.8184291   8.3927757  54.5810318  88.9916290   8.0541032  56.0463586
  81.7527115  10.9826775  48.3224720  82.5448407  10.6417600  47.9071019
  81.9923765  11.0921751  49.2426873  89.7862242  13.1546552  40.7954965
  89.1350222  13.7400632  40.4088978  90.5806605  13.6852746  40.8550002
  83.7117869  10.2435689  41.1942099  84.4848745   9.6964676  41.0554975
  84.0643268  11.1079938  41.4056560  85.5502912  11.5712071  54.4008998
  85.2592778  12.4757702  54.2855665  86.1859896  11.6128599  55.1153068
  86.4759119   8.9488919  50.9910358  87.0722691   8.7244942  50.2767321
  86.5334090   8.2073665  51.5935806  86.0484147   6.4028355  38.8260549
  86.3009668   5.8809876  38.0644012  85.1108706   6.2394500  38.9287232
  91.2637507  10.8436983  41.3323949  90.6283340  10.9171610  42.0444853
  90.9334914  11.4330582  40.6543028  85.7680436   8.3056461  41.0284924
  85.6516694   7.6301364  41.6966008  85.8782696   7.8188835  40.2117077
  88.1111977   7.7666608  44.7331613  87.7470184   7.2397229  45.4444534
  88.9679093   7.3765077  44.5598098  90.5092797  11.2573486  51.3958792
  90.2093520  12.1598525  51.2874599  90.1643856  10.9905670  52.2479945
  83.9605278   7.7087283  47.4295496  83.0355775   7.5763497  47.6373188
  84.2089691   8.4881503  47.9265439  81.3214089   7.3520557  48.2639285
  81.4506470   7.6055036  49.1778697  80.6411541   7.9448265  47.9443940
  85.4913577  18.0217807  44.3629760  85.4137606  18.9725632  44.4418240
  84.8875220  17.6763679  45.0204686  86.2377179   8.0031126  56.5809093
  86.9791863   8.5416170  56.3043917  85.5314164   8.6297414  56.7380645
  91.7132518  10.1460266  55.1781255  92.1215874   9.7042677  54.4335887
  90.9909780   9.5712894  55.4315448  92.0361333  10.7061457  48.9333544
  91.4070195  10.8707171  48.2309612  91.6486995  11.1203066  49.7044508
  95.9150565  11.6415895  46.2877908  95.2301603  12.0214796  45.7374941
  95.9994414  12.2511221  47.0209855  93.1701496   9.2875854  52.8873251
  93.3818392   9.9307613  52.2107632  93.1231245   8.4538170  52.4195181
  87.5889295  10.4435865  46.1983629  88.0527640  10.7223568  45.4088251
  87.3246093   9.5419309  46.0156720  84.4813376   9.9907346  49.1363392
  85.0514733  10.4194615  48.4980877  85.0721488   9.7089931  49.8347578
  86.5258181   6.5659017  43.0073194  87.2282224   7.0180061  43.4747120
  86.1938809   5.9242836  43.6353087  84.9738542   5.1570774  57.3824403
  84.3437203   5.8387055  57.6159800  84.8674630   5.0453855  56.4377542
  80.2683515   4.8242570  48.3090328  79.4782569   5.0800098  47.8330438
  80.7594762   5.6390908  48.4142368  94.2847324  12.1647809  51.0595608
  95.1064768  11.7627996  50.7778290  94.2809727  12.0616043  52.0111724
  82.2198260   5.1887149  45.2673804  81.4229423   5.3005843  45.7857300
  81.9923852   5.5273801  44.4014695  88.0503928  11.7131852  53.2156319
  88.1148360  12.1752260  54.0514491  87.3414852  11.0829217  53.3438629
  78.5521218   5.0773060  50.7405318  78.8029256   5.9620070  51.0062894
  79.0880766   4.8977662  49.9680410  87.7651945  13.3799960  43.0835299
  87.6297620  14.2251496  43.5120147  88.3061758  13.5819237  42.3201233
  81.2181343  10.8975398  43.6563224  81.7305863  11.6918648  43.8068789
  81.8704056  10.2001688  43.5896826  83.0276228  14.0141154  45.7385978
  83.2042856  14.9359119  45.5506961  83.8233061  13.6999573  46.1680357
  82.3128584   6.0605786  55.6148141  82.1982099   5.1591043  55.9155240
  81.4573102   6.3069483  55.2632957  89.3920422  14.0023526  57.2135641
  88.9484276  13.2159905  56.8956546  90.0537635  14.1902677  56.5479532
  84.1507543  15.5319328  51.7396320  84.7014968  15.4036391  50.9673314
  83.3119019  15.8314217  51.3891213  91.4901660  14.2826326  55.2417043
  91.4720135  15.1035207  54.7497312  92.4121580  14.1580401  55.4667184
  87.9474714  11.7970456  56.0840551  88.4803051  11.0358744  55.8539859
  87.4188795  11.5044108  56.8264706  79.1830260   9.2264052  44.4322795
  80.0205482   9.6361060  44.2156503  79.3608527   8.2863494  44.4022989
  96.0528966   9.6471487  42.0559801  95.2758409   9.3082647  41.6114963
  96.7320447   9.6524111  41.3814766  89.3127427  10.9256448  43.5959363
  88.7848788  10.1909208  43.2832601  88.8114930  11.7031125  43.3499331
  94.2920273   9.1205469  48.7126409  93.6343947   9.8104730  48.8006538
  95.0960672   9.5101901  49.0560396  87.4580027   8.7436658  36.5994336
  86.5507089   8.5125912  36.7985485  87.9551059   7.9474278  36.7868318
  90.3648106  17.4534166  39.5191022  89.6909805  17.7565862  40.1275980
  90.7513928  18.2563246  39.1696479  88.6368260   8.8449253  41.1218326
  87.7279480   8.5608286  41.2190796  88.6663344   9.2648332  40.2621633
  93.8687528  12.4555843  44.8909494  93.4149855  11.6146753  44.9474684
  93.2381495  13.0917241  45.2284274  92.3120467  14.2932340  45.8259312
  92.6043441  14.8537397  45.1071678  92.8219088  14.5860901  46.5812471
  79.2056431   6.5654767  45.1033528  79.0080831   5.9724128  44.3784595
  78.6503095   6.2606978  45.8209467  88.3344348  10.3857997  38.4606405
  87.8963778   9.6693856  38.0012042  89.0754789  10.6134112  37.8991496
  87.2754092  15.0712691  46.9152765  87.2330271  15.2973537  45.9861297
  88.1916791  14.8376065  47.0638566  96.4786843  10.7291721  49.5293995
  96.9123349  10.6367010  50.3777049  97.1918423  10.7049222  48.8914011
  85.3919893  11.9475720  46.7114728  86.1860492  11.4526040  46.5097303
  84.6811585  11.4193583  46.3482433  90.2114738  14.3293815  51.0627095
  90.2651760  14.8984751  51.8304811  89.3429519  14.4995700  50.6981133
  81.7002657   6.0918801  42.7874480  80.7700245   6.0303257  43.0044443
  81.7960128   5.5694754  41.9911122  97.3402392  10.7715422  52.0626880
  97.5338282  11.6761232  52.3086155  97.2403010  10.3122841  52.8965465
  92.4017501  10.9222164  57.6367761  92.2503007  10.6932716  56.7197845
  92.3922180  11.8792766  57.6499106  89.1702837   8.4954077  52.6214027
  90.0994897   8.6465237  52.4482995  88.7493867   8.5838098  51.7662674
  87.9691169  12.5204742  50.3912565  87.8302255  12.1523526  51.2638503
  87.1805765  13.0352381  50.2196523  88.5639321  17.6213838  41.7338101
  88.7391077  17.1501881  42.5483724  87.8772109  18.2479604  41.9619362
  89.5196384  11.8986344  47.7801403  89.1846217  11.8587114  48.6759053
  89.0200330  11.2331060  47.3071813  83.4940628   7.3053974  53.3053984
  83.3560426   6.5734213  53.9065523  84.4045552   7.2162874  53.0238172
  92.4555576   9.2442379  38.0538462  91.8384746   8.5189207  37.9571515
  91.9872064  10.0051739  37.7105537  86.1222929   7.0173934  52.7937663
  86.8322547   6.3767126  52.7524282  86.0792237   7.2686829  53.7163844
  94.1109707  13.9541287  55.7144243  94.0522254  13.2700507  55.0474826
  94.5129226  14.6960277  55.2624869  83.1300406  20.7703201  48.5077962
  83.3697005  21.4021725  49.1856980  82.2869603  20.4191241  48.7943321
  94.1127115  11.9180871  53.9458222  93.2253894  11.5806793  54.0684621
  94.6825666  11.1863902  54.1826988  75.7656262   8.2504963  47.2701274
  76.4527302   7.9366693  46.6822289  75.6104391   9.1546327  46.9968525
  87.6428268  16.5782323  50.9119466  87.5698440  17.3837295  51.4238770
  87.2005661  16.7774289  50.0867487  87.4318048  15.8154093  44.4222287
  86.6485570  16.3575773  44.5160512  88.1310793  16.3328073  44.8216528
  90.1026952  16.4769157  53.0677624  90.8154924  17.1116622  52.9953526
  89.6116980  16.5733023  52.2517626  91.8244479  10.3820410  44.6394916
  90.8900757  10.5021872  44.4699620  92.0021147   9.4792877  44.3754926
  85.1538865  14.2263601  53.8883195  85.8548325  14.8600084  54.0412589
  84.6833980  14.5678332  53.1278834  93.2793261  12.5681551  42.1731102
  93.5553105  12.4538145  43.0824976  92.4097760  12.1699035  42.1343275
  89.9147325  16.8167901  45.8163916  90.0969720  15.9989557  46.2791668
  90.7380311  17.0335594  45.3788806  90.2489491  15.7436087  43.0778964
  90.7777257  15.2328541  42.4649126  90.5117710  15.4278617  43.9424497
  89.0027724   7.5228019  58.2001783  88.3268361   7.4222149  58.8704158
  89.8255358   7.3667233  58.6637780  80.7506583  13.7599956  50.8214298
  81.3360020  13.0143644  50.9542202  80.5531422  14.0703913  51.7050962
  83.6045238  16.7951203  45.8376740  82.9355614  17.2797331  45.3540780
  83.4658108  17.0420424  46.7520119  75.3424238   6.3305556  49.5418741
  75.3808338   5.7969147  50.3355859  74.8364531   5.8040762  48.9229718
  87.7450507  18.8294947  52.4359398  88.2968815  18.9926568  53.2008484
  88.0856701  19.4199385  51.7639423  92.5961381  13.6556204  58.2908053
  93.1401285  14.2686163  57.7963008  92.0148226  14.2135783  58.8075066
  78.9732816   5.0569658  42.6172672  79.2686257   4.1480337  42.5639726
  78.0720851   5.0357398  42.2953675  90.8818894  16.7776922  49.4223081
  90.7570034  15.9766662  48.9134026  91.5397985  17.2723116  48.9337051
  92.9453803  14.5785942  51.0502631  91.9984138  14.4591294  50.9780957
  93.2936576  13.6908440  51.1328892  89.9500236  14.3738659  47.2506983
  89.8025198  13.4455366  47.4314553  90.7753730  14.3958749  46.7664058
  93.5534358  15.1967217  48.3371856  94.4780905  14.9910079  48.1996307
  93.3849661  14.9483618  49.2461197  84.6860972   5.1862209  48.8209845
  84.5405552   5.5002512  49.7134126  84.2086175   5.8047110  48.2680743
  93.3429674  15.7152885  43.6933947  93.5166552  15.1499307  42.9407800
  93.8358565  16.5153780  43.5113437  79.1606634   7.7267554  51.7597506
  78.6160102   8.5027362  51.8917780  80.0385984   8.0738358  51.6016627
  94.3304847  15.0319649  40.7930845  95.0255751  15.6526342  41.0118160
  94.6727997  14.1815000  41.0683223  79.9472656   6.8537450  54.6527663
  79.2054392   7.0020085  55.2392293  79.6265400   7.1145716  53.7894412
  96.2296270  12.4819355  42.3218176  96.7547594  12.8206627  41.5967496
  96.1418622  11.5466370  42.1381311  87.8916318  16.3953428  54.4508053
  88.2003445  16.1502575  55.3230752  88.6891800  16.6000067  53.9626923
  87.9136930  18.5491338  46.6813429  87.4741921  18.0567717  47.3746286
  88.6645047  18.0064306  46.4405505  80.3929269  14.7402879  46.6838057
  81.2187289  14.4406651  46.3036701  80.0423321  13.9710501  47.1327846
  85.3610803  14.0929347  48.7535731  84.7390812  13.4300052  48.4537959
  86.0315669  14.1190479  48.0709379  78.5937874  12.6589205  47.6426991
  77.7569783  12.2311380  47.4610992  78.5661520  12.8521649  48.5797782
  95.9190176  13.1152258  57.6269374  95.1285719  13.0976397  57.0873874
  95.6823530  13.6540552  58.3818411  96.0388051   9.9644725  54.9402103
  96.0886056   9.7994732  55.8817626  95.9301974   9.0971984  54.5499983
  84.9224309  12.6433270  42.2294192  85.0712430  13.3268735  41.5760864
  85.7290753  12.6238360  42.7443647  97.5406248  12.3841666  55.1844124
  97.2491056  12.7471647  56.0207585  96.9278379  11.6708674  55.0057456
  82.6776942   8.6698448  43.2355261  82.4322984   7.7660778  43.4335471
  82.8472857   8.6715598  42.2934739  88.4219715  15.1381401  39.7005939
  87.8493682  15.7571588  39.2476411  88.9952509  15.6880763  40.2345861
  91.6416975  15.4218551  40.8314521  92.5747648  15.3564113  41.0347397
  91.5540188  16.2574818  40.3729054  94.2704991  14.7384421  37.7918469
  94.1918623  14.4044285  38.6854227  95.0914658  15.2306189  37.7909941
  88.6905206  10.5259960  58.5022649  89.6108216  10.7038559  58.6962695
  88.6554789   9.5816005  58.3502348  77.9087371   5.7198553  47.4275923
  77.5890155   4.8663862  47.1350297  77.3620799   5.9347132  48.1833890
  81.6867279   8.4360994  51.1445430  81.9053288   9.3678102  51.1633463
  82.0993052   8.0768969  51.9300234  77.7775631   9.3401465  49.3969045
  77.0839102   8.9255418  48.8838999  78.5248622   9.3822001  48.8002464
  86.4226414   7.4391339  59.3513240  85.9393496   8.2391699  59.5577129
  86.5087353   7.4499284  58.3980684  79.6912374   9.2719719  47.2735060
  79.6683062   9.3707406  46.3216943  80.0013010  10.1184869  47.5952226
  82.3499751  11.3295874  51.3881674  83.3043005  11.2979816  51.3211606
  82.1512275  10.8686497  52.2031900  82.9399134   9.8996990  53.9552472
  83.7592023  10.3941068  53.9787309  83.2135941   8.9828958  53.9270039
  80.7049980  16.8715493  48.4051872  80.5704448  16.1115894  47.8389870
  80.2882043  17.5956393  47.9380661  91.8408943  12.0552417  37.4128447
  92.5444793  12.2602419  38.0286103  91.1171592  12.6229179  37.6777531
  83.8619106  17.7684810  48.6170315  83.7451490  18.7130243  48.5149005
  83.0411552  17.4658372  49.0056114  93.7495641  12.4934946  39.4626907
  94.5841245  12.0616144  39.2804382  93.5879984  12.3216960  40.3903802
  93.4041533   8.9967059  40.8283247  93.3490337   8.8311331  39.8871691
  92.7787588   9.7043092  40.9845436  78.1934048   4.2335124  54.6544669
  78.8392911   3.7234078  55.1431894  77.9851199   4.9703805  55.2288094
  90.7187440  11.3015971  60.1536809  91.5878600  11.4756623  59.7923444
  90.2394192  12.1210388  60.0312539  84.8873620  18.4213072  51.8326243
  85.7900867  18.4536682  52.1492738  84.6610990  17.4913523  51.8472579
  86.6427222  17.1744059  48.4936322  85.6922853  17.1745920  48.3800694
  86.9459708  16.4276793  47.9772356 102.3779916  23.0104597  49.5582084
 103.0158326  22.8911344  48.8545424 102.2600759  23.9585441  49.6170036
  99.1869622  22.9632025  49.4943609  98.8488134  22.8473090  48.6064144
 100.0559390  22.5623190  49.4744615  95.0456438  24.8167502  45.4840500
  94.4821303  24.7257438  44.7156787  94.9308833  23.9967406  45.9642992
  99.6689405  24.1166877  55.4529814  99.6578046  23.7219675  54.5810318
  99.8310045  23.3832949  56.0463586  92.5920870  26.3118693  48.3224720
  93.3842162  25.9709518  47.9071019  92.8317520  26.4213668  49.2426873
 100.6255996  28.4838469  40.7954965  99.9743976  29.0692550  40.4088978
 101.4200359  29.0144664  40.8550002  94.5511624  25.5727606  41.1942099
  95.3242500  25.0256593  41.0554975  94.9037022  26.4371856  41.4056560
  96.3896666  26.9003989  54.4008998  96.0986532  27.8049619  54.2855665
  97.0253651  26.9420516  55.1153068  97.3152873  24.2780837  50.9910358
  97.9116445  24.0536860  50.2767321  97.3727845  23.5365583  51.5935806
  96.8877901  21.7320273  38.8260549  97.1403422  21.2101794  38.0644012
  95.9502461  21.5686418  38.9287232 101.9321184  20.7356051  46.6335292
 102.7184273  20.3175474  46.2825709 102.1959889  21.6402143  46.8016940
 102.1031262  26.1728901  41.3323949 101.4677095  26.2463528  42.0444853
 101.7728668  26.7622500  40.6543028 107.3329611  20.6731284  47.5368271
 108.0654783  20.1030501  47.7706100 106.5768967  20.2852885  47.9774776
  96.6074190  23.6348378  41.0284924  96.4910448  22.9593282  41.6966008
  96.7176450  23.1480752  40.2117077  98.9505731  23.0958526  44.7331613
  98.5863938  22.5689147  45.4444534  99.8072847  22.7056995  44.5598098
 104.8555032  14.3852858  51.9962879 104.5238357  15.2548269  51.7724094
 104.2600645  14.0689142  52.6756910  98.5911218  18.1248425  39.7292962
  98.7585620  18.9928662  40.0963433  98.4008387  18.2875707  38.8054251
 101.3486551  26.5865404  51.3958792 101.0487274  27.4890443  51.2874599
 101.0037611  26.3197587  52.2479945  94.7999033  23.0379201  47.4295496
  93.8749529  22.9055415  47.6373188  95.0483446  23.8173420  47.9265439
 104.7483695  19.1047944  49.0756229 103.8400572  19.0363353  48.7814990
 104.6971291  19.5819889  49.9038055  98.5700439  20.5806083  40.7139628
  98.4500064  21.0263134  41.5525109  97.8753027  20.9291400  40.1553166
  92.1607844  22.6812475  48.2639285  92.2900225  22.9346953  49.1778697
  91.4805295  23.2740183  47.9443940  96.3307331  33.3509725  44.3629760
  96.2531361  34.3017550  44.4418240  95.7268975  33.0055597  45.0204686
  98.8224561  20.5237590  57.0191126  98.0457895  21.0831510  57.0093991
  99.4615124  21.0094373  57.5405997 106.6145341  17.3064383  50.8534103
 105.9719722  17.5996916  50.2073898 106.1100270  17.1917303  51.6587300
 104.2685505  21.0527556  41.5419962 105.1803361  21.2854943  41.3667660
 103.7595152  21.6364600  40.9795041  97.0770933  23.3323043  56.5809093
  97.8185618  23.8708087  56.3043917  96.3707919  23.9589332  56.7380645
 102.5526273  25.4752184  55.1781255 102.9609629  25.0334594  54.4335887
 101.8303534  24.9004811  55.4315448  98.9057343  20.4124791  52.5514812
  99.7518538  20.8364204  52.6949461  98.8455980  19.7558415  53.2453375
 102.8755087  26.0353374  48.9333544 102.2463950  26.1999089  48.2309612
 102.4880750  26.4494984  49.7044508 106.7544319  26.9707812  46.2877908
 106.0695357  27.3506714  45.7374941 106.8388169  27.5803139  47.0209855
 102.0556788  18.0729159  54.2095986 101.8117720  18.8271219  53.6730261
 102.3316719  18.4514506  55.0443233 104.0095251  24.6167771  52.8873251
 104.2212146  25.2599531  52.2107632 103.9624999  23.7830088  52.4195181
 101.6121480  17.2285592  49.7909823 100.7505959  17.5266845  50.0826561
 101.6383915  17.4455991  48.8590856  98.4283049  25.7727782  46.1983629
  98.8921395  26.0515485  45.4088251  98.1639847  24.8711227  46.0156720
  95.3207130  25.3199264  49.1363392  95.8908487  25.7486532  48.4980877
  95.9115242  25.0381849  49.8347578  97.3651935  21.8950935  43.0073194
  98.0675979  22.3471979  43.4747120  97.0332564  21.2534754  43.6353087
  95.8132297  20.4862691  57.3824403  95.1830957  21.1678972  57.6159800
  95.7068385  20.3745773  56.4377542  91.1077269  20.1534488  48.3090328
  90.3176323  20.4092016  47.8330438  91.5988517  20.9682825  48.4142368
 105.1241079  27.4939727  51.0595608 105.9458523  27.0919914  50.7778290
 105.1203482  27.3907961  52.0111724  93.0592015  20.5179067  45.2673804
  92.2623178  20.6297761  45.7857300  92.8317607  20.8565719  44.4014695
  98.8897682  27.0423770  53.2156319  98.9542115  27.5044177  54.0514491
  98.1808606  26.4121135  53.3438629  89.3914972  20.4064978  50.7405318
  89.6423011  21.2911988  51.0062894  89.9274521  20.2269579  49.9680410
 113.2147072  23.8378475  47.4080580 112.4610780  23.2685873  47.2524584
 113.3494613  23.8041140  48.3551215  98.6045700  28.7091877  43.0835299
  98.4691375  29.5543413  43.5120147  99.1455512  28.9111155  42.3201233
  95.0913040  14.7883457  59.7449655  94.6979985  14.2349656  60.4197299
  95.9079180  15.0994036  60.1356172  92.0575097  26.2267316  43.6563224
  92.5699618  27.0210566  43.8068789  92.7097810  25.5293606  43.5896826
  93.8669982  29.3433072  45.7385978  94.0436610  30.2651036  45.5506961
  94.6626816  29.0291491  46.1680357  98.0081001  16.2041336  57.3369911
  98.7490714  16.8048490  57.2574374  98.2398923  15.4618974  56.7787954
  93.1522339  21.3897704  55.6148141  93.0375854  20.4882961  55.9155240
  92.2966856  21.6361400  55.2632957 100.2314176  29.3315444  57.2135641
  99.7878031  28.5451823  56.8956546 100.8931390  29.5194594  56.5479532
  94.9901298  30.8611246  51.7396320  95.5408723  30.7328309  50.9673314
  94.1512773  31.1606135  51.3891213 102.3295414  29.6118244  55.2417043
 102.3113890  30.4327125  54.7497312 103.2515334  29.4872319  55.4667184
  98.7868469  27.1262373  56.0840551  99.3196805  26.3650662  55.8539859
  98.2582550  26.8336025  56.8264706 101.9538164  12.2322439  51.6134193
 101.6102433  13.1224081  51.5373303 102.3217126  12.0424097  50.7503778
  90.0224014  24.5555970  44.4322795  90.8599236  24.9652978  44.2156503
  90.2002282  23.6155412  44.4022989 101.9188446  22.2231050  40.1206628
 101.4035070  22.9935655  40.3595015 101.6465755  21.5496187  40.7439689
  99.5035557  17.0680751  45.1791866  98.6477154  16.6787602  44.9997505
  99.9162509  17.1472712  44.3191652 101.0334704  14.6027095  49.5783426
 100.5299500  14.5657230  48.7651231 101.3265311  15.5119837  49.6380083
  97.2777590  14.6865824  48.5849608  98.1430587  14.4908633  48.2255497
  97.3455099  14.4576176  49.5118965 106.8922720  24.9763405  42.0559801
 106.1152163  24.6374565  41.6114963 107.5714201  24.9816028  41.3814766
 101.7074749  20.0958143  41.9466409 101.4024885  20.4104292  42.7976552
 102.6605192  20.1739562  41.9893742 100.1521181  26.2548366  43.5959363
  99.6242543  25.5201125  43.2832601  99.6508684  27.0323042  43.3499331
 105.1314027  24.4497386  48.7126409 104.4737702  25.1396648  48.8006538
 105.9354427  24.8393818  49.0560396  94.8839909  16.9168032  45.9565975
  95.4583661  16.6943214  45.2239168  95.4710891  16.9856727  46.7094576
 103.9419486  22.8041759  46.7630351 104.4551368  23.4371751  47.2652061
 104.5920710  22.2042955  46.3973711  95.2109496  18.9472493  39.9761860
  94.3746808  19.2847180  40.2971135  95.0714266  18.8121473  39.0388997
  97.1862577  13.7909281  44.6841044  96.5326989  13.4758298  44.0597659
  97.1443051  13.1685022  45.4100867  98.2973781  24.0728576  36.5994336
  97.3900843  23.8417830  36.7985485  98.7944813  23.2766195  36.7868318
 101.2041860  32.7826083  39.5191022 100.5303559  33.0857780  40.1275980
 101.5907682  33.5855164  39.1696479 100.4200317  20.2791215  49.0088692
  99.5022878  20.5006162  48.8510380 100.8360461  20.3537525  48.1500399
 101.2035365  21.6782630  44.1391372 101.9507184  22.1904027  43.8298494
 101.4726954  21.3566683  44.9995765  99.4762015  24.1741171  41.1218326
  98.5673234  23.8900204  41.2190796  99.5057099  24.5940250  40.2621633
 104.7081282  27.7847760  44.8909494 104.2543609  26.9438670  44.9474684
 104.0775249  28.4209159  45.2284274 103.6514202  18.7139747  46.1210161
 102.9136959  18.2017133  46.4520404 103.9040975  18.2740128  45.3093438
 103.1514222  29.6224257  45.8259312 103.4437196  30.1829314  45.1071678
 103.6612842  29.9152818  46.5812471  90.0450185  21.8946685  45.1033528
  89.8474585  21.3016046  44.3784595  89.4896849  21.5898895  45.8209467
  98.0246909  21.7869792  47.2228122  98.0795519  20.8343628  47.1470598
  97.2138111  21.9429231  47.7069420  99.1738103  25.7149915  38.4606405
  98.7357533  24.9985774  38.0012042  99.9148544  25.9426029  37.8991496
  95.9639269  20.4046851  44.9818500  95.1507134  20.7041022  45.3883693
  96.4598263  20.0102540  45.6992983  98.1147847  30.4004608  46.9152765
  98.0724026  30.6265455  45.9861297  99.0310546  30.1667983  47.0638566
 101.5613481  20.8688676  53.8133394 101.9162868  21.0960149  54.6727860
 102.2085612  21.2007053  53.1910650 107.2911217  23.9907112  44.5182723
 107.1529116  24.1808708  43.5903913 106.9347436  24.7526495  44.9750774
  95.4553344  17.9765207  50.5979735  96.0952723  17.8353966  49.9002699
  94.6230874  17.6899720  50.2218337 107.3180597  26.0583639  49.5293995
 107.7517104  25.9658928  50.3777049 108.0312178  26.0341139  48.8914011
  96.2313648  27.2767637  46.7114728  97.0254246  26.7817957  46.5097303
  95.5205340  26.7485500  46.3482433 101.0508492  29.6585733  51.0627095
 101.1045514  30.2276669  51.8304811 100.1823273  29.8287618  50.6981133
  92.5396411  21.4210719  42.7874480  91.6093999  21.3595175  43.0044443
  92.6353883  20.8986672  41.9911122  92.4581960  17.9465532  45.3752722
  92.7188777  18.8610865  45.2661883  93.2799132  17.4789974  45.5249335
  93.9306885  19.3603289  52.5451547  94.6029939  19.1520651  51.8964196
  93.1036672  19.1625375  52.1056779 108.1796147  26.1007339  52.0626880
 108.3732037  27.0053150  52.3086155 108.0796765  25.6414758  52.8965465
  99.8332457  15.9865230  54.5617208  99.1860372  16.6855180  54.4681684
 100.6033473  16.4201374  54.9293456 103.2411255  26.2514082  57.6367761
 103.0896762  26.0224634  56.7197845 103.2315935  27.2084684  57.6499106
 100.0096592  23.8245995  52.6214027 100.9388652  23.9757154  52.4482995
  99.5887622  23.9130016  51.7662674  98.8084924  27.8496659  50.3912565
  98.6696009  27.4815444  51.2638503  98.0199520  28.3644299  50.2196523
  99.4033075  32.9505756  41.7338101  99.5784831  32.4793799  42.5483724
  98.7165864  33.5771522  41.9619362 100.3590139  27.2278262  47.7801403
 100.0239971  27.1879032  48.6759053  99.8594084  26.5622978  47.3071813
  94.3334383  22.6345892  53.3053984  94.1954181  21.9026131  53.9065523
  95.2439306  22.5454792  53.0238172 103.2949330  24.5734296  38.0538462
 102.6778501  23.8481124  37.9571515 102.8265819  25.3343657  37.7105537
  96.9616683  22.3465851  52.7937663  97.6716302  21.7059044  52.7524282
  96.9185991  22.5978746  53.7163844 104.9503462  29.2833205  55.7144243
 104.8916008  28.5992425  55.0474826 105.3522980  30.0252195  55.2624869
  95.6745617  19.3331069  54.6133303  95.1382974  18.8821808  55.2654899
  95.0862326  19.4676978  53.8703767  95.0847876  18.7919721  37.1759767
  94.2077343  18.6708521  36.8122013  95.5605629  18.0005799  36.9238655
 104.9520869  27.2472789  53.9458222 104.0647648  26.9098710  54.0684621
 105.5219420  26.5155820  54.1826988  86.6050016  23.5796880  47.2701274
  87.2921056  23.2658610  46.6822289  86.4498145  24.4838245  46.9968525
  91.4084739  18.4687077  51.6986297  91.3242927  17.8612746  50.9636707
  90.5867445  18.9596095  51.6995794  98.4822023  31.9074241  50.9119466
  98.4092194  32.7129212  51.4238770  98.0399416  32.1066207  50.0867487
  98.2711802  31.1446011  44.4222287  97.4879324  31.6867691  44.5160512
  98.9704547  31.6619991  44.8216528 101.5808452  16.9540640  47.0656493
 102.0777152  16.2010603  46.7457563 100.8095434  16.9904957  46.4999702
 109.4338210  22.6581006  48.7074784 109.4228086  23.5405721  48.3368717
 108.5655589  22.3052557  48.5129321 100.9420706  31.8061075  53.0677624
 101.6548678  32.4408540  52.9953526 100.4510735  31.9024941  52.2517626
 102.6638233  25.7112328  44.6394916 101.7294512  25.8313790  44.4699620
 102.8414902  24.8084794  44.3754926  98.1643421  19.0958023  46.7928177
  97.7941209  18.5429064  47.4809083  98.6602514  18.4916157  46.2403177
 106.0510784  21.5529647  45.1744950 106.5171237  22.3857639  45.1005253
 106.5018285  21.0874629  45.8790209  95.9932620  29.5555518  53.8883195
  96.6942079  30.1892001  54.0412589  95.5227735  29.8970250  53.1278834
 104.1187016  27.8973468  42.1731102 104.3946859  27.7830063  43.0824976
 103.2491514  27.4990953  42.1343275 104.0227447  13.9210234  49.2135851
 103.1090527  14.1514461  49.3818058 104.4520549  14.0048678  50.0649884
 103.7933906  22.1100126  51.7135745 103.1405356  22.3576033  51.0588198
 104.1714286  21.2964264  51.3798223 100.7541080  32.1459819  45.8163916
 100.9363474  31.3281475  46.2791668 101.5774066  32.3627511  45.3788806
 101.0883245  31.0728004  43.0778964 101.6171011  30.5620459  42.4649126
 101.3511465  30.7570534  43.9424497  99.8421479  22.8519937  58.2001783
  99.1662116  22.7514066  58.8704158 100.6649113  22.6959151  58.6637780
  91.5900338  29.0891873  50.8214298  92.1753775  28.3435561  50.9542202
  91.3925176  29.3995830  51.7050962  86.1817992  21.6597474  49.5418741
  86.2202092  21.1261064  50.3355859  85.6758285  21.1332679  48.9229718
  98.5844262  34.1586864  52.4359398  99.1362570  34.3218486  53.2008484
  98.9250455  34.7491302  51.7639423  93.5608755  16.5062014  53.0381283
  93.6250081  17.3676845  52.6258681  93.4975875  15.8936016  52.3053642
  93.0361027  18.5785147  56.6854317  93.6633066  18.1962224  57.2991842
  92.1788946  18.3599349  57.0510010 103.4355136  28.9848122  58.2908053
 103.9795040  29.5978080  57.7963008 102.8541981  29.5427700  58.8075066
  89.8126570  20.3861576  42.6172672  90.1080011  19.4772254  42.5639726
  88.9114606  20.3649315  42.2953675 101.7212649  32.1068840  49.4223081
 101.5963788  31.3058580  48.9134026 102.3791740  32.6015033  48.9337051
  93.3420817  18.4617572  48.6000221  92.6207403  19.0753540  48.4607694
  94.1314073  18.9975337  48.5216867 103.7847557  29.9077860  51.0502631
 102.8377893  29.7883211  50.9780957 104.1330330  29.0200358  51.1328892
  96.1447131  15.7971999  54.8740873  96.6681532  16.0434295  55.6367182
  95.9259464  16.6292034  54.4544010  91.5414412  18.0675674  42.7411997
  91.2127118  17.1873052  42.5587103  91.8953782  18.0123342  43.6288387
 100.7893991  29.7030576  47.2506983 100.6418953  28.7747284  47.4314553
 101.6147484  29.7250667  46.7664058  94.6556235  18.3548643  43.1087475
  94.9952307  18.8834565  42.3866083  95.1028355  18.6929049  43.8846042
 104.3928112  30.5259135  48.3371856 105.3174660  30.3201996  48.1996307
 104.2243416  30.2775536  49.2461197  97.3499676  16.7385694  52.5590543
  97.0096496  15.9393507  52.9611223  96.6438682  17.0387405  51.9867376
  98.0016147  13.8235006  51.0117866  98.8242217  13.3495485  50.8896757
  98.2454211  14.6025490  51.5116552  96.6424382  16.8523265  41.3080768
  97.3632744  17.2304518  40.8044485  96.0189686  17.5712142  41.4115746
 100.7855505  17.5568414  42.2439100 101.0019119  18.4393052  41.9427928
 100.3049572  17.1654627  41.5144742  95.5254726  20.5154127  48.8209845
  95.3799307  20.8294430  49.7134126  95.0479930  21.1339027  48.2680743
  97.3851109  17.5056675  48.8690734  97.3712678  16.6097768  48.5323032
  98.1023537  17.5127339  49.5029020  99.2377240  17.9394015  50.9143862
  98.9795018  18.8611086  50.9128192  98.7062280  17.5424450  51.6044326
 104.1823429  31.0444802  43.6933947 104.3560306  30.4791225  42.9407800
 104.6752320  31.8445697  43.5113437  90.0000388  23.0559471  51.7597506
  89.4553856  23.8319279  51.8917780  90.8779738  23.4030276  51.6016627
  96.7888005  16.3871055  44.1378304  96.9103916  15.4587702  44.3369192
  96.4990047  16.4009741  43.2256620  99.6579195  14.0725966  47.2745024
  99.6800892  14.1365299  46.3197004 100.0747254  13.2330474  47.4685530
 110.0362820  23.8081225  45.3124247 110.4793966  23.0588551  44.9143370
 109.1589330  23.7991362  44.9297979 105.1698601  30.3611567  40.7930845
 105.8649506  30.9818259  41.0118160 105.5121751  29.5106918  41.0683223
  90.7866410  22.1829368  54.6527663  90.0448146  22.3312003  55.2392293
  90.4659155  22.4437633  53.7894412 107.0690024  27.8111272  42.3218176
 107.5941348  28.1498545  41.5967496 106.9812377  26.8758288  42.1381311
  98.7310073  31.7245346  54.4508053  99.0397199  31.4794493  55.3230752
  99.5285555  31.9291984  53.9626923  98.7530685  33.8783256  46.6813429
  98.3135675  33.3859634  47.3746286  99.5038802  33.3356223  46.4405505
  96.2004557  29.4221265  48.7535731  95.5784566  28.7591970  48.4537959
  96.8709424  29.4482397  48.0709379  89.4331629  27.9881123  47.6426991
  88.5963537  27.5603297  47.4610992  89.4055274  28.1813566  48.5797782
  96.2729085  17.9003053  58.3468237  96.3217240  18.7765176  57.9646007
  96.8151599  17.3580446  57.7739880 106.7583930  28.4444176  57.6269374
 105.9679474  28.4268315  57.0873874 106.5217285  28.9832470  58.3818411
 106.8781805  25.2936642  54.9402103 106.9279810  25.1286650  55.8817626
 106.7695729  24.4263901  54.5499983  95.7618064  27.9725188  42.2294192
  95.9106184  28.6560652  41.5760864  96.5684507  27.9530278  42.7443647
 104.1685568  21.2767570  56.2561409 105.0695430  21.1374035  55.9645407
 104.2433542  21.4422025  57.1959587  98.5028373  18.6534425  55.1014596
  97.6331682  18.9467991  54.8297184  98.7387853  19.2374870  55.8221859
 108.3800002  27.7133584  55.1844124 108.0884810  28.0763564  56.0207585
 107.7672133  27.0000592  55.0057456 109.5795684  25.2786464  47.7046694
 110.4142576  25.7176268  47.8684255 109.7154813  24.8025117  46.8854940
 106.6287190  22.8366199  53.6524182 107.1041312  23.0293845  52.8443034
 105.7052756  22.8925384  53.4067566  93.5170697  23.9990366  43.2355261
  93.2716739  23.0952696  43.4335471  93.6866612  24.0007516  42.2934739
 101.2067407  14.8714042  52.6180016 101.7249351  15.6075069  52.2926505
 100.8522540  15.1778035  53.4526775  92.7866345  19.7318723  40.7341422
  92.0935589  19.8063078  40.0781458  92.5418096  18.9679067  41.2562939
  99.2613470  30.4673318  39.7005939  98.6887437  31.0863506  39.2476411
  99.8346263  31.0172680  40.2345861 105.3288859  19.7131959  51.8852488
 106.2806282  19.8130056  51.9064712 105.1592310  18.9210227  52.3950572
 103.3503239  16.7987542  52.0711889 102.7553171  17.0792555  51.3758377
 103.0652936  17.2881443  52.8428630 102.4810729  30.7510469  40.8314521
 103.4141402  30.6856030  41.0347397 102.3933942  31.5866735  40.3729054
 105.1098746  30.0676339  37.7918469 105.0312378  29.7336203  38.6854227
 105.9308413  30.5598107  37.7909941 107.8076937  22.9338078  50.9994787
 107.7753257  21.9954079  51.1854471 108.4177561  23.0122115  50.2660612
  99.6460268  21.8034131  37.0421992 100.5919373  21.6740339  37.1110410
  99.2674513  21.0648793  37.5191420 107.9571426  19.7249122  51.0453071
 107.4410474  18.9407578  50.8583000 108.8411374  19.3967838  51.2099590
 105.6182153  13.4690137  47.0048883 105.4206974  13.1605225  47.8892215
 106.2281858  14.1951776  47.1346813 113.6253487  23.9954085  50.1400824
 114.3556875  23.7339373  50.7008528 113.0160432  23.2582807  50.1802892
 111.7068784  22.1361948  50.7375275 110.9801948  22.0017913  50.1291767
 111.2916071  22.4438776  51.5431994  99.5298961  25.8551877  58.5022649
 100.4501970  26.0330476  58.6962695  99.4948544  24.9107923  58.3502348
  97.8303185  19.7284108  36.9776877  96.9234641  19.4317220  37.0539590
  98.1079166  19.4313926  36.1111163  88.7481126  21.0490471  47.4275923
  88.4283910  20.1955779  47.1350297  88.2014554  21.2639049  48.1833890
  92.5261033  23.7652912  51.1445430  92.7447043  24.6970020  51.1633463
  92.9386807  23.4060886  51.9300234  99.4465251  14.2720997  43.1321118
  98.6365979  13.9268082  43.5076364 100.1349668  13.9628541  43.7208730
 101.3755799  13.3499044  44.7545415 101.9286838  13.7694498  45.4135438
 101.6125886  12.4234792  44.7968371  97.3988898  19.3386118  60.5348179
  97.2985625  20.2880475  60.4660270  97.1810440  19.0104357  59.6624249
  96.6001970  16.5871043  37.1188856  97.4621134  16.9125941  37.3784673
  96.7852314  15.8002539  36.6061922  88.6169386  24.6693383  49.3969045
  87.9232857  24.2547335  48.8838999  89.3642377  24.7113919  48.8002464
 104.7534606  15.4599569  44.2624079 104.1733275  16.1184373  43.8802131
 104.4870539  14.6376914  43.8511496 103.2038173  14.8604627  46.4645399
 103.7037951  14.9721162  45.6559718 103.8473781  14.5565680  47.1046208
  97.2620168  22.7683257  59.3513240  96.7787250  23.5683617  59.5577129
  97.3481108  22.7791202  58.3980684  90.5306128  24.6011636  47.2735060
  90.5076816  24.6999324  46.3216943  90.8406765  25.4476787  47.5952226
  93.1893506  26.6587791  51.3881674  94.1436760  26.6271734  51.3211606
  92.9906030  26.1978415  52.2031900  93.7792888  25.2288907  53.9552472
  94.5985777  25.7232986  53.9787309  94.0529696  24.3120876  53.9270039
 103.5359484  17.6199660  43.3180427 102.6485339  17.9049310  43.1000622
 103.9513473  17.4593423  42.4707704 106.8874020  17.6446181  47.0334766
 107.6634411  18.1342633  47.3059383 106.1622155  18.0704235  47.4906636
 109.3246579  18.3573800  48.0908707 109.9191070  18.1169536  47.3802015
 109.3973163  17.6380930  48.7182243 102.6802698  27.3844334  37.4128447
 103.3838548  27.5894337  38.0286103 101.9565347  27.9521096  37.6777531
 103.5100508  23.1354196  43.5330717 103.4535709  23.5922747  42.6938350
 104.0628850  22.3744880  43.3553560 107.3205314  18.9243928  44.3580837
 107.0642248  18.5240563  45.1889045 106.6958182  19.6387721  44.2330976
 111.6317652  21.6640001  46.8652128 111.0717210  21.7333190  47.6383690
 111.0261155  21.4880985  46.1451625 104.5889395  27.8226864  39.4626907
 105.4234999  27.3908062  39.2804382 104.4273738  27.6508877  40.3903802
 104.2435287  24.3258977  40.8283247 104.1884091  24.1603248  39.8871691
 103.6181343  25.0335010  40.9845436  89.0327802  19.5627041  54.6544669
  89.6786666  19.0525995  55.1431894  88.8244953  20.2995723  55.2288094
 101.5581195  26.6307889  60.1536809 102.4272354  26.8048541  59.7923444
 101.0787946  27.4502306  60.0312539  97.5531413  13.8267086  40.4068565
  97.5410083  14.7708926  40.5636836  98.4454835  13.6437231  40.1128026
  97.4820977  32.5035976  48.4936322  96.5316608  32.5037838  48.3800694
  97.7853463  31.7568711  47.9772356  93.3725293  16.7094658  58.7519683
  94.2356755  16.3531463  58.9623008  92.7990704  16.3708553  59.4395087
 113.2173670  38.3396515  49.5582084 113.8552080  38.2203262  48.8545424
 113.0994513  39.2877359  49.6170036 110.0263377  38.2923943  49.4943609
 109.6881888  38.1765007  48.6064144 110.8953145  37.8915108  49.4744615
 105.8850192  40.1459419  45.4840500 105.3215057  40.0549356  44.7156787
 105.7702587  39.3259324  45.9642992 110.5083160  39.4458795  55.4529814
 110.4971800  39.0511593  54.5810318 110.6703799  38.7124867  56.0463586
 103.4314624  41.6410611  48.3224720 104.2235916  41.3001435  47.9071019
 103.6711274  41.7505586  49.2426873 111.4649751  43.8130387  40.7954965
 110.8137731  44.3984467  40.4088978 112.2594114  44.3436582  40.8550002
 105.3905378  40.9019524  41.1942099 106.1636254  40.3548511  41.0554975
 105.7430777  41.7663773  41.4056560 107.2290421  42.2295906  54.4008998
 106.9380287  43.1341537  54.2855665 107.8647405  42.2712434  55.1153068
 108.1546628  39.6072755  50.9910358 108.7510200  39.3828777  50.2767321
 108.2121599  38.8657500  51.5935806 107.7271656  37.0612190  38.8260549
 107.9797177  36.5393711  38.0644012 106.7896215  36.8978336  38.9287232
 112.7714939  36.0647969  46.6335292 113.5578028  35.6467392  46.2825709
 113.0353643  36.9694061  46.8016940 112.9425016  41.5020819  41.3323949
 112.3070849  41.5755445  42.0444853 112.6122423  42.0914418  40.6543028
 118.1723366  36.0023202  47.5368271 118.9048538  35.4322419  47.7706100
 117.4162722  35.6144802  47.9774776 107.4467945  38.9640296  41.0284924
 107.3304203  38.2885200  41.6966008 107.5570205  38.4772670  40.2117077
 109.7899486  38.4250443  44.7331613 109.4257693  37.8981064  45.4444534
 110.6466602  38.0348912  44.5598098 115.6948786  29.7144776  51.9962879
 115.3632111  30.5840187  51.7724094 115.0994400  29.3981060  52.6756910
 109.4304973  33.4540343  39.7292962 109.5979375  34.3220579  40.0963433
 109.2402142  33.6167625  38.8054251 112.1880306  41.9157322  51.3958792
 111.8881029  42.8182361  51.2874599 111.8431365  41.6489505  52.2479945
 105.6392787  38.3671119  47.4295496 104.7143284  38.2347333  47.6373188
 105.8877200  39.1465338  47.9265439 115.5877450  34.4339862  49.0756229
 114.6794327  34.3655270  48.7814990 115.5365045  34.9111807  49.9038055
 109.4094193  35.9098000  40.7139628 109.2893819  36.3555051  41.5525109
 108.7146782  36.2583318  40.1553166 103.0001598  38.0104392  48.2639285
 103.1293979  38.2638871  49.1778697 102.3199050  38.6032100  47.9443940
 107.1701086  48.6801642  44.3629760 107.0925115  49.6309467  44.4418240
 106.5662729  48.3347515  45.0204686 109.6618315  35.8529508  57.0191126
 108.8851649  36.4123428  57.0093991 110.3008878  36.3386291  57.5405997
 117.4539096  32.6356300  50.8534103 116.8113476  32.9288834  50.2073898
 116.9494024  32.5209221  51.6587300 115.1079260  36.3819474  41.5419962
 116.0197116  36.6146860  41.3667660 114.5988907  36.9656518  40.9795041
 107.9164688  38.6614961  56.5809093 108.6579372  39.2000005  56.3043917
 107.2101673  39.2881250  56.7380645 113.3920027  40.8044101  55.1781255
 113.8003383  40.3626512  54.4335887 112.6697289  40.2296729  55.4315448
 109.7451097  35.7416708  52.5514812 110.5912293  36.1656122  52.6949461
 109.6849735  35.0850333  53.2453375 113.7148842  41.3645292  48.9333544
 113.0857704  41.5291006  48.2309612 113.3274504  41.7786902  49.7044508
 117.5938074  42.2999730  46.2877908 116.9089112  42.6798631  45.7374941
 117.6781923  42.9095057  47.0209855 112.8950543  33.4021077  54.2095986
 112.6511475  34.1563137  53.6730261 113.1710473  33.7806424  55.0443233
 114.8489005  39.9459689  52.8873251 115.0605901  40.5891449  52.2107632
 114.8018754  39.1122005  52.4195181 112.4515234  32.5577510  49.7909823
 111.5899713  32.8558763  50.0826561 112.4777669  32.7747908  48.8590856
 109.2676804  41.1019700  46.1983629 109.7315149  41.3807403  45.4088251
 109.0033602  40.2003145  46.0156720 106.1600885  40.6491182  49.1363392
 106.7302242  41.0778450  48.4980877 106.7508997  40.3673766  49.8347578
 108.2045690  37.2242853  43.0073194 108.9069733  37.6763896  43.4747120
 107.8726318  36.5826671  43.6353087 106.6526051  35.8154609  57.3824403
 106.0224712  36.4970890  57.6159800 106.5462139  35.7037691  56.4377542
 101.9471024  35.4826405  48.3090328 101.1570078  35.7383934  47.8330438
 102.4382271  36.2974743  48.4142368 115.9634833  42.8231644  51.0595608
 116.7852277  42.4211832  50.7778290 115.9597236  42.7199879  52.0111724
 103.8985769  35.8470984  45.2673804 103.1016932  35.9589679  45.7857300
 103.6711361  36.1857637  44.4014695 109.7291437  42.3715688  53.2156319
 109.7935869  42.8336095  54.0514491 109.0202361  41.7413053  53.3438629
 100.2308727  35.7356896  50.7405318 100.4816765  36.6203906  51.0062894
 100.7668275  35.5561497  49.9680410 109.4439454  44.0383795  43.0835299
 109.3085129  44.8835331  43.5120147 109.9849267  44.2403073  42.3201233
 105.9306794  30.1175375  59.7449655 105.5373740  29.5641574  60.4197299
 106.7472934  30.4285953  60.1356172 102.8968852  41.5559233  43.6563224
 103.4093372  42.3502483  43.8068789 103.5491565  40.8585524  43.5896826
 104.7063737  44.6724989  45.7385978 104.8830365  45.5942954  45.5506961
 105.5020570  44.3583409  46.1680357 108.8474755  31.5333254  57.3369911
 109.5884468  32.1340407  57.2574374 109.0792678  30.7910892  56.7787954
 103.9916093  36.7189621  55.6148141 103.8769608  35.8174879  55.9155240
 103.1360611  36.9653318  55.2632957 111.0707931  44.6607362  57.2135641
 110.6271785  43.8743740  56.8956546 111.7325144  44.8486512  56.5479532
 105.8295052  46.1903163  51.7396320 106.3802477  46.0620227  50.9673314
 104.9906528  46.4898052  51.3891213 113.1689169  44.9410162  55.2417043
 113.1507644  45.7619043  54.7497312 114.0909089  44.8164237  55.4667184
 109.6262223  42.4554291  56.0840551 110.1590560  41.6942579  55.8539859
 109.0976304  42.1627943  56.8264706 112.7931918  27.5614357  51.6134193
 112.4496187  28.4515999  51.5373303 113.1610881  27.3716015  50.7503778
 100.8617769  39.8847887  44.4322795 101.6992991  40.2944896  44.2156503
 101.0396036  38.9447330  44.4022989 112.7582201  37.5522968  40.1206628
 112.2428824  38.3227573  40.3595015 112.4859509  36.8788104  40.7439689
 110.3429312  32.3972669  45.1791866 109.4870908  32.0079519  44.9997505
 110.7556264  32.4764630  44.3191652 111.8728458  29.9319012  49.5783426
 111.3693254  29.8949147  48.7651231 112.1659065  30.8411755  49.6380083
 108.1171344  30.0157742  48.5849608 108.9824341  29.8200551  48.2255497
 108.1848853  29.7868094  49.5118965 117.7316475  40.3055323  42.0559801
 116.9545918  39.9666482  41.6114963 118.4107956  40.3107946  41.3814766
 112.5468504  35.4250060  41.9466409 112.2418639  35.7396209  42.7976552
 113.4998946  35.5031480  41.9893742 110.9914936  41.5840284  43.5959363
 110.4636297  40.8493043  43.2832601 110.4902438  42.3614960  43.3499331
 115.9707782  39.7789304  48.7126409 115.3131456  40.4688565  48.8006538
 116.7748181  40.1685736  49.0560396 105.7233663  32.2459950  45.9565975
 106.2977415  32.0235131  45.2239168 106.3104646  32.3148644  46.7094576
 114.7813241  38.1333677  46.7630351 115.2945122  38.7663669  47.2652061
 115.4314464  37.5334872  46.3973711 106.0503250  34.2764411  39.9761860
 105.2140563  34.6139097  40.2971135 105.9108020  34.1413391  39.0388997
 108.0256331  29.1201199  44.6841044 107.3720743  28.8050216  44.0597659
 107.9836805  28.4976939  45.4100867 109.1367536  39.4020494  36.5994336
 108.2294598  39.1709747  36.7985485 109.6338568  38.6058113  36.7868318
 112.0435615  48.1118001  39.5191022 111.3697314  48.4149698  40.1275980
 112.4301437  48.9147081  39.1696479 111.2594071  35.6083132  49.0088692
 110.3416633  35.8298079  48.8510380 111.6754215  35.6829443  48.1500399
 112.0429119  37.0074548  44.1391372 112.7900938  37.5195945  43.8298494
 112.3120709  36.6858601  44.9995765 110.3155769  39.5033089  41.1218326
 109.4066989  39.2192121  41.2190796 110.3450853  39.9232167  40.2621633
 115.5475037  43.1139678  44.8909494 115.0937364  42.2730588  44.9474684
 114.9169004  43.7501077  45.2284274 114.4907956  34.0431664  46.1210161
 113.7530713  33.5309050  46.4520404 114.7434730  33.6032046  45.3093438
 113.9907976  44.9516175  45.8259312 114.2830950  45.5121232  45.1071678
 114.5006597  45.2444736  46.5812471 114.5919584  26.8207916  46.7151930
 114.8978460  25.9605280  46.4277846 115.3172189  27.4125536  46.5150924
 100.8843940  37.2238603  45.1033528 100.6868340  36.6307964  44.3784595
 100.3290604  36.9190813  45.8209467 108.8640663  37.1161709  47.2228122
 108.9189273  36.1635546  47.1470598 108.0531865  37.2721148  47.7069420
 110.0131857  41.0441832  38.4606405 109.5751287  40.3277691  38.0012042
 110.7542298  41.2717947  37.8991496 106.8033023  35.7338769  44.9818500
 105.9900889  36.0332940  45.3883693 107.2992018  35.3394458  45.6992983
 108.9541601  45.7296526  46.9152765 108.9117780  45.9557372  45.9861297
 109.8704300  45.4959901  47.0638566 112.4007235  36.1980593  53.8133394
 112.7556623  36.4252067  54.6727860 113.0479366  36.5298970  53.1910650
 118.1304972  39.3199029  44.5182723 117.9922871  39.5100625  43.5903913
 117.7741191  40.0818412  44.9750774 106.2947098  33.3057125  50.5979735
 106.9346477  33.1645884  49.9002699 105.4624629  33.0191638  50.2218337
 118.1574352  41.3875556  49.5293995 118.5910858  41.2950845  50.3777049
 118.8705932  41.3633057  48.8914011 107.0707402  42.6059555  46.7114728
 107.8648001  42.1109875  46.5097303 106.3599094  42.0777418  46.3482433
 111.8902246  44.9877651  51.0627095 111.9439269  45.5568587  51.8304811
 111.0217028  45.1579536  50.6981133 103.3790165  36.7502637  42.7874480
 102.4487754  36.6887092  43.0044443 103.4747637  36.2278589  41.9911122
 103.2975715  33.2757450  45.3752722 103.5582532  34.1902783  45.2661883
 104.1192887  32.8081892  45.5249335 104.7700640  34.6895207  52.5451547
 105.4423693  34.4812569  51.8964196 103.9430426  34.4917293  52.1056779
 119.0189901  41.4299257  52.0626880 119.2125791  42.3345068  52.3086155
 118.9190519  40.9706676  52.8965465 110.6726212  31.3157148  54.5617208
 110.0254127  32.0147097  54.4681684 111.4427227  31.7493292  54.9293456
 114.0805010  41.5806000  57.6367761 113.9290516  41.3516551  56.7197845
 114.0709689  42.5376601  57.6499106 110.8490346  39.1537913  52.6214027
 111.7782406  39.3049072  52.4482995 110.4281376  39.2421933  51.7662674
 109.6478678  43.1788577  50.3912565 109.5089764  42.8107361  51.2638503
 108.8593274  43.6936216  50.2196523 110.2426830  48.2797673  41.7338101
 110.4178586  47.8085717  42.5483724 109.5559618  48.9063440  41.9619362
 111.1983893  42.5570180  47.7801403 110.8633726  42.5170950  48.6759053
 110.6987839  41.8914896  47.3071813 105.1728137  37.9637810  53.3053984
 105.0347935  37.2318049  53.9065523 106.0833061  37.8746710  53.0238172
 114.1343085  39.9026214  38.0538462 113.5172255  39.1773042  37.9571515
 113.6659573  40.6635574  37.7105537 107.8010438  37.6757769  52.7937663
 108.5110056  37.0350961  52.7524282 107.7579746  37.9270664  53.7163844
 115.7897216  44.6125122  55.7144243 115.7309763  43.9284342  55.0474826
 116.1916735  45.3544112  55.2624869 106.5139372  34.6622987  54.6133303
 105.9776729  34.2113725  55.2654899 105.9256080  34.7968896  53.8703767
 104.8087915  51.4287036  48.5077962 105.0484513  52.0605560  49.1856980
 103.9657112  51.0775076  48.7943321 105.9241631  34.1211638  37.1759767
 105.0471097  34.0000439  36.8122013 106.3999384  33.3297717  36.9238655
 115.7914624  42.5764706  53.9458222 114.9041402  42.2390628  54.0684621
 116.3613175  41.8447738  54.1826988  97.4443771  38.9088798  47.2701274
  98.1314811  38.5950528  46.6822289  97.2891900  39.8130163  46.9968525
 102.2478493  33.7978995  51.6986297 102.1636682  33.1904664  50.9636707
 101.4261199  34.2888013  51.6995794 109.3215777  47.2366159  50.9119466
 109.2485949  48.0421130  51.4238770 108.8793170  47.4358124  50.0867487
 109.1105557  46.4737929  44.4222287 108.3273079  47.0159609  44.5160512
 109.8098302  46.9911908  44.8216528 112.4202207  32.2832558  47.0656493
 112.9170906  31.5302520  46.7457563 111.6489188  32.3196875  46.4999702
 120.2731964  37.9872924  48.7074784 120.2621841  38.8697639  48.3368717
 119.4049344  37.6344474  48.5129321 111.7814461  47.1352993  53.0677624
 112.4942433  47.7700457  52.9953526 111.2904489  47.2316859  52.2517626
 113.5031988  41.0404245  44.6394916 112.5688266  41.1605708  44.4699620
 113.6808656  40.1376712  44.3754926 109.0037176  34.4249941  46.7928177
 108.6334963  33.8720981  47.4809083 109.4996268  33.8208075  46.2403177
 116.8904539  36.8821565  45.1744950 117.3564991  37.7149556  45.1005253
 117.3412039  36.4166546  45.8790209 106.8326374  44.8847436  53.8883195
 107.5335834  45.5183919  54.0412589 106.3621489  45.2262168  53.1278834
 114.9580770  43.2265386  42.1731102 115.2340614  43.1121980  43.0824976
 114.0885269  42.8282871  42.1343275 114.8621202  29.2502152  49.2135851
 113.9484281  29.4806378  49.3818058 115.2914303  29.3340596  50.0649884
 114.6327660  37.4392044  51.7135745 113.9799110  37.6867951  51.0588198
 115.0108040  36.6256182  51.3798223 111.5934834  47.4751737  45.8163916
 111.7757229  46.6573393  46.2791668 112.4167820  47.6919429  45.3788806
 111.9277000  46.4019922  43.0778964 112.4564766  45.8912376  42.4649126
 112.1905219  46.0862452  43.9424497 110.6815233  38.1811855  58.2001783
 110.0055870  38.0805984  58.8704158 111.5042867  38.0251068  58.6637780
 102.4294092  44.4183791  50.8214298 103.0147529  43.6727479  50.9542202
 102.2318931  44.7287748  51.7050962 105.2832747  47.4535039  45.8376740
 104.6143123  47.9381166  45.3540780 105.1445617  47.7004259  46.7520119
 109.4238016  49.4878782  52.4359398 109.9756324  49.6510404  53.2008484
 109.7644210  50.0783220  51.7639423 104.4002509  31.8353932  53.0381283
 104.4643836  32.6968763  52.6258681 104.3369630  31.2227934  52.3053642
 103.8754782  33.9077064  56.6854317 104.5026821  33.5254142  57.2991842
 103.0182701  33.6891266  57.0510010 114.2748890  44.3140040  58.2908053
 114.8188794  44.9269998  57.7963008 113.6935735  44.8719618  58.8075066
 100.6520325  35.7153494  42.6172672 100.9473766  34.8064172  42.5639726
  99.7508360  35.6941233  42.2953675 112.5606403  47.4360758  49.4223081
 112.4357543  46.6350497  48.9134026 113.2185494  47.9306951  48.9337051
 104.1814572  33.7909490  48.6000221 103.4601157  34.4045458  48.4607694
 104.9707827  34.3267255  48.5216867 114.6241312  45.2369778  51.0502631
 113.6771647  45.1175129  50.9780957 114.9724085  44.3492276  51.1328892
 106.9840885  31.1263917  54.8740873 107.5075287  31.3726213  55.6367182
 106.7653218  31.9583951  54.4544010 102.3808166  33.3967591  42.7411997
 102.0520872  32.5164970  42.5587103 102.7347537  33.3415260  43.6288387
 111.6287745  45.0322494  47.2506983 111.4812707  44.1039201  47.4314553
 112.4541239  45.0542585  46.7664058 105.4949989  33.6840561  43.1087475
 105.8346062  34.2126482  42.3866083 105.9422110  34.0220967  43.8846042
 115.2321867  45.8551053  48.3371856 116.1568414  45.6493914  48.1996307
 115.0637170  45.6067454  49.2461197 108.1893430  32.0677612  52.5590543
 107.8490250  31.2685425  52.9611223 107.4832436  32.3679323  51.9867376
 108.8409902  29.1526924  51.0117866 109.6635971  28.6787402  50.8896757
 109.0847965  29.9317408  51.5116552 107.4818136  32.1815183  41.3080768
 108.2026499  32.5596435  40.8044485 106.8583441  32.9004059  41.4115746
 111.6249259  32.8860332  42.2439100 111.8412874  33.7684969  41.9427928
 111.1443326  32.4946545  41.5144742 106.3648481  35.8446045  48.8209845
 106.2193061  36.1586348  49.7134126 105.8873684  36.4630945  48.2680743
 108.2244864  32.8348593  48.8690734 108.2106432  31.9389686  48.5323032
 108.9417292  32.8419257  49.5029020 110.0770994  33.2685933  50.9143862
 109.8188772  34.1903004  50.9128192 109.5456035  32.8716368  51.6044326
 115.0217183  46.3736720  43.6933947 115.1954061  45.8083143  42.9407800
 115.5146074  47.1737615  43.5113437 100.8394143  38.3851389  51.7597506
 100.2947611  39.1611197  51.8917780 101.7173493  38.7322194  51.6016627
 107.6281760  31.7162973  44.1378304 107.7497671  30.7879619  44.3369192
 107.3383802  31.7301659  43.2256620 110.4972950  29.4017883  47.2745024
 110.5194647  29.4657217  46.3197004 110.9141009  28.5622392  47.4685530
 120.8756574  39.1373143  45.3124247 121.3187720  38.3880468  44.9143370
 119.9983085  39.1283279  44.9297979 116.0092356  45.6903485  40.7930845
 116.7043260  46.3110177  41.0118160 116.3515506  44.8398836  41.0683223
 101.6260165  37.5121285  54.6527663 100.8841901  37.6603921  55.2392293
 101.3052909  37.7729551  53.7894412 117.9083779  43.1403190  42.3218176
 118.4335103  43.4790463  41.5967496 117.8206131  42.2050205  42.1381311
 109.5703827  47.0537264  54.4508053 109.8790954  46.8086410  55.3230752
 110.3679309  47.2583902  53.9626923 109.5924439  49.2075173  46.6813429
 109.1529430  48.7151552  47.3746286 110.3432556  48.6648141  46.4405505
 102.0716778  45.3986714  46.6838057 102.8974798  45.0990486  46.3036701
 101.7210830  44.6294337  47.1327846 107.0398312  44.7513182  48.7535731
 106.4178321  44.0883887  48.4537959 107.7103178  44.7774314  48.0709379
 100.2725383  43.3173041  47.6426991  99.4357292  42.8895215  47.4610992
 100.2449029  43.5105484  48.5797782 107.1122839  33.2294970  58.3468237
 107.1610995  34.1057093  57.9646007 107.6545353  32.6872363  57.7739880
 117.5977685  43.7736094  57.6269374 116.8073228  43.7560233  57.0873874
 117.3611039  44.3124387  58.3818411 117.7175560  40.6228560  54.9402103
 117.7673565  40.4578567  55.8817626 117.6089483  39.7555819  54.5499983
 106.6011818  43.3017106  42.2294192 106.7499939  43.9852570  41.5760864
 107.4078262  43.2822196  42.7443647 115.0079322  36.6059488  56.2561409
 115.9089185  36.4665953  55.9645407 115.0827297  36.7713943  57.1959587
 109.3422128  33.9826343  55.1014596 108.4725437  34.2759909  54.8297184
 109.5781608  34.5666788  55.8221859 119.2193757  43.0425502  55.1844124
 118.9278565  43.4055482  56.0207585 118.6065888  42.3292510  55.0057456
 120.4189439  40.6078381  47.7046694 121.2536330  41.0468185  47.8684255
 120.5548568  40.1317035  46.8854940 117.4680945  38.1658116  53.6524182
 117.9435066  38.3585762  52.8443034 116.5446510  38.2217302  53.4067566
 104.3564451  39.3282283  43.2355261 104.1110493  38.4244613  43.4335471
 104.5260366  39.3299434  42.2934739 112.0461161  30.2005960  52.6180016
 112.5643105  30.9366987  52.2926505 111.6916294  30.5069953  53.4526775
 103.6260099  35.0610641  40.7341422 102.9329344  35.1354996  40.0781458
 103.3811851  34.2970985  41.2562939 112.2973756  26.6206242  48.1380913
 112.5775509  25.9529431  48.7641339 113.0824362  26.8135338  47.6255577
 110.1007224  45.7965236  39.7005939 109.5281191  46.4155423  39.2476411
 110.6740018  46.3464598  40.2345861 116.1682614  35.0423876  51.8852488
 117.1200037  35.1421974  51.9064712 115.9986064  34.2502145  52.3950572
 114.1896993  32.1279459  52.0711889 113.5946925  32.4084472  51.3758377
 113.9046690  32.6173360  52.8428630 113.3204484  46.0802386  40.8314521
 114.2535157  46.0147948  41.0347397 113.2327697  46.9158653  40.3729054
 115.9492500  45.3968257  37.7918469 115.8706132  45.0628120  38.6854227
 116.7702167  45.8890025  37.7909941 118.6470692  38.2629996  50.9994787
 118.6147012  37.3245997  51.1854471 119.2571315  38.3414033  50.2660612
 110.4854023  37.1326049  37.0421992 111.4313127  37.0032257  37.1110410
 110.1068267  36.3940711  37.5191420 118.7965180  35.0541039  51.0453071
 118.2804229  34.2699496  50.8583000 119.6805129  34.7259756  51.2099590
 116.4575907  28.7982055  47.0048883 116.2600728  28.4897143  47.8892215
 117.0675613  29.5243694  47.1346813 110.3692715  41.1843795  58.5022649
 111.2895725  41.3622394  58.6962695 110.3342298  40.2399840  58.3502348
 108.6696940  35.0576025  36.9776877 107.7628395  34.7609138  37.0539590
 108.9472921  34.7605843  36.1111163  99.5874880  36.3782389  47.4275923
  99.2677664  35.5247697  47.1350297  99.0408308  36.5930967  48.1833890
 103.3654788  39.0944830  51.1445430 103.5840797  40.0261938  51.1633463
 103.7780561  38.7352804  51.9300234 110.2859005  29.6012915  43.1321118
 109.4759734  29.2560000  43.5076364 110.9743422  29.2920459  43.7208730
 112.2149554  28.6790962  44.7545415 112.7680592  29.0986415  45.4135438
 112.4519640  27.7526710  44.7968371 108.2382653  34.6678035  60.5348179
 108.1379380  35.6172392  60.4660270 108.0204195  34.3396274  59.6624249
 107.4395724  31.9162961  37.1188856 108.3014888  32.2417859  37.3784673
 107.6246068  31.1294456  36.6061922  99.4563140  39.9985300  49.3969045
  98.7626611  39.5839253  48.8838999 100.2036131  40.0405837  48.8002464
 115.5928361  30.7891487  44.2624079 115.0127030  31.4476291  43.8802131
 115.3264293  29.9668832  43.8511496 114.0431927  30.1896545  46.4645399
 114.5431705  30.3013079  45.6559718 114.6867535  29.8857598  47.1046208
 108.1013923  38.0975174  59.3513240 107.6181005  38.8975534  59.5577129
 108.1874862  38.1083119  58.3980684 101.3699883  39.9303554  47.2735060
 101.3470571  40.0291241  46.3216943 101.6800519  40.7768705  47.5952226
 104.0287260  41.9879709  51.3881674 104.9830514  41.9563651  51.3211606
 103.8299784  41.5270333  52.2031900 104.6186643  40.5580825  53.9552472
 105.4379532  41.0524904  53.9787309 104.8923450  39.6412793  53.9270039
 114.3753239  32.9491577  43.3180427 113.4879094  33.2341228  43.1000622
 114.7907228  32.7885341  42.4707704 117.7267775  32.9738098  47.0334766
 118.5028165  33.4634551  47.3059383 117.0015909  33.3996153  47.4906636
 120.1640334  33.6865718  48.0908707 120.7584824  33.4461454  47.3802015
 120.2366917  32.9672848  48.7182243 102.3837489  47.5299329  48.4051872
 102.2491957  46.7699729  47.8389870 101.9669552  48.2540228  47.9380661
 113.5196452  42.7136252  37.4128447 114.2232302  42.9186255  38.0286103
 112.7959101  43.2813014  37.6777531 114.3494263  38.4646113  43.5330717
 114.2929464  38.9214665  42.6938350 114.9022605  37.7036798  43.3553560
 118.1599068  34.2535845  44.3580837 117.9036003  33.8532481  45.1889045
 117.5351936  34.9679639  44.2330976 122.4711406  36.9931918  46.8652128
 121.9110964  37.0625108  47.6383690 121.8654910  36.8172903  46.1451625
 105.5406615  48.4268646  48.6170315 105.4238999  49.3714078  48.5149005
 104.7199061  48.1242207  49.0056114 115.4283150  43.1518781  39.4626907
 116.2628754  42.7199980  39.2804382 115.2667493  42.9800795  40.3903802
 115.0829042  39.6550895  40.8283247 115.0277846  39.4895166  39.8871691
 114.4575097  40.3626927  40.9845436  99.8721557  34.8918959  54.6544669
 100.5180420  34.3817913  55.1431894  99.6638708  35.6287641  55.2288094
 112.3974949  41.9599806  60.1536809 113.2666109  42.1340459  59.7923444
 111.9181700  42.7794223  60.0312539 108.3925167  29.1559004  40.4068565
 108.3803837  30.1000843  40.5636836 109.2848589  28.9729149  40.1128026
 106.5661129  49.0796907  51.8326243 107.4688376  49.1120518  52.1492738
 106.3398499  48.1497358  51.8472579 108.3214731  47.8327894  48.4936322
 107.3710362  47.8329756  48.3800694 108.6247217  47.0860629  47.9772356
 112.2077287  25.7501780  44.6614502 111.4409683  25.1960267  44.8071184
 112.6187992  25.8223649  45.5228653 104.2119048  32.0386576  58.7519683
 105.0750509  31.6823381  58.9623008 103.6384458  31.7000471  59.4395087
 120.8657131  53.6215860  49.4943609 120.5275643  53.5056925  48.6064144
 121.7346899  53.2207026  49.4744615 116.7243947  55.4751337  45.4840500
 116.1608812  55.3841274  44.7156787 116.6096342  54.6551241  45.9642992
 121.3476914  54.7750712  55.4529814 121.3365555  54.3803510  54.5810318
 121.5097553  54.0416785  56.0463586 114.2708379  56.9702528  48.3224720
 115.0629671  56.6293353  47.9071019 114.5105029  57.0797504  49.2426873
 116.2299133  56.2311442  41.1942099 117.0030009  55.6840429  41.0554975
 116.5824531  57.0955691  41.4056560 118.0684175  57.5587824  54.4008998
 117.7774041  58.4633455  54.2855665 118.7041160  57.6004352  55.1153068
 118.9940382  54.9364673  50.9910358 119.5903954  54.7120695  50.2767321
 119.0515354  54.1949418  51.5935806 118.5665410  52.3904108  38.8260549
 118.8190931  51.8685629  38.0644012 117.6289970  52.2270253  38.9287232
 118.2861699  54.2932214  41.0284924 118.1697957  53.6177117  41.6966008
 118.3963959  53.8064588  40.2117077 120.6293240  53.7542361  44.7331613
 120.2651447  53.2272982  45.4444534 121.4860356  53.3640830  44.5598098
 120.2698727  48.7832261  39.7292962 120.4373129  49.6512497  40.0963433
 120.0795896  48.9459542  38.8054251 116.4786542  53.6963036  47.4295496
 115.5537038  53.5639250  47.6373188 116.7270955  54.4757256  47.9265439
 120.2487948  51.2389918  40.7139628 120.1287573  51.6846969  41.5525109
 119.5540536  51.5875236  40.1553166 113.8395353  53.3396310  48.2639285
 113.9687734  53.5930789  49.1778697 113.1592804  53.9324018  47.9443940
 118.0094840  64.0093560  44.3629760 117.9318870  64.9601385  44.4418240
 117.4056484  63.6639432  45.0204686 120.5012070  51.1821425  57.0191126
 119.7245404  51.7415345  57.0093991 121.1402633  51.6678208  57.5405997
 118.7558442  53.9906879  56.5809093 119.4973126  54.5291923  56.3043917
 118.0495428  54.6173167  56.7380645 120.5844852  51.0708626  52.5514812
 121.4306047  51.4948039  52.6949461 120.5243489  50.4142250  53.2453375
 120.1070558  56.4311618  46.1983629 120.5708904  56.7099321  45.4088251
 119.8427356  55.5295062  46.0156720 116.9994639  55.9783099  49.1363392
 117.5695996  56.4070368  48.4980877 117.5902751  55.6965684  49.8347578
 119.0439444  52.5534770  43.0073194 119.7463488  53.0055814  43.4747120
 118.7120073  51.9118589  43.6353087 117.4919806  51.1446527  57.3824403
 116.8618466  51.8262808  57.6159800 117.3855894  51.0329608  56.4377542
 112.7864778  50.8118323  48.3090328 111.9963832  51.0675851  47.8330438
 113.2776026  51.6266661  48.4142368 114.7379524  51.1762902  45.2673804
 113.9410687  51.2881596  45.7857300 114.5105116  51.5149554  44.4014695
 120.5685191  57.7007605  53.2156319 120.6329624  58.1628013  54.0514491
 119.8596115  57.0704970  53.3438629 111.0702481  51.0648813  50.7405318
 111.3210520  51.9495823  51.0062894 111.6062030  50.8853415  49.9680410
 120.2833209  59.3675713  43.0835299 120.1478884  60.2127249  43.5120147
 120.8243021  59.5694990  42.3201233 116.7700549  45.4467293  59.7449655
 116.3767494  44.8933491  60.4197299 117.5866689  45.7577871  60.1356172
 113.7362606  56.8851151  43.6563224 114.2487127  57.6794401  43.8068789
 114.3885319  56.1877441  43.5896826 115.5457491  60.0016907  45.7385978
 115.7224119  60.9234872  45.5506961 116.3414325  59.6875326  46.1680357
 119.6868510  46.8625172  57.3369911 120.4278223  47.4632325  57.2574374
 119.9186432  46.1202810  56.7787954 114.8309848  52.0481539  55.6148141
 114.7163363  51.1466796  55.9155240 113.9754365  52.2945236  55.2632957
 116.6688807  61.5195081  51.7396320 117.2196232  61.3912144  50.9673314
 115.8300282  61.8189970  51.3891213 120.4655978  57.7846209  56.0840551
 120.9984314  57.0234497  55.8539859 119.9370059  57.4919861  56.8264706
 111.7011523  55.2139805  44.4322795 112.5386745  55.6236814  44.2156503
 111.8789791  54.2739247  44.4022989 121.1823066  47.7264587  45.1791866
 120.3264663  47.3371437  44.9997505 121.5950018  47.8056547  44.3191652
 118.9565099  45.3449660  48.5849608 119.8218096  45.1492468  48.2255497
 119.0242608  45.1160011  49.5118965 121.8308690  56.9132201  43.5959363
 121.3030052  56.1784961  43.2832601 121.3296193  57.6906878  43.3499331
 116.5627418  47.5751868  45.9565975 117.1371170  47.3527049  45.2239168
 117.1498400  47.6440562  46.7094576 116.8897005  49.6056329  39.9761860
 116.0534317  49.9431015  40.2971135 116.7501775  49.4705308  39.0388997
 118.8650086  44.4493116  44.6841044 118.2114498  44.1342134  44.0597659
 118.8230560  43.8268857  45.4100867 119.9761290  54.7312411  36.5994336
 119.0688352  54.5001665  36.7985485 120.4732322  53.9350031  36.7868318
 121.1549524  54.8325006  41.1218326 120.2460743  54.5484039  41.2190796
 121.1844608  55.2524085  40.2621633 111.7237694  52.5530520  45.1033528
 111.5262094  51.9599881  44.3784595 111.1684358  52.2482731  45.8209467
 119.7034418  52.4453627  47.2228122 119.7583028  51.4927463  47.1470598
 118.8925620  52.6013066  47.7069420 120.8525612  56.3733750  38.4606405
 120.4145042  55.6569609  38.0012042 121.5936053  56.6009865  37.8991496
 117.6426778  51.0630687  44.9818500 116.8294643  51.3624857  45.3883693
 118.1385772  50.6686375  45.6992983 119.7935356  61.0588444  46.9152765
 119.7511535  61.2849290  45.9861297 120.7098055  60.8251818  47.0638566
 117.1340853  48.6349042  50.5979735 117.7740232  48.4937801  49.9002699
 116.3018383  48.3483556  50.2218337 117.9101157  57.9351473  46.7114728
 118.7041755  57.4401793  46.5097303 117.1992849  57.4069336  46.3482433
 114.2183920  52.0794554  42.7874480 113.2881508  52.0179010  43.0044443
 114.3141392  51.5570507  41.9911122 114.1369469  48.6049367  45.3752722
 114.3976286  49.5194700  45.2661883 114.9586641  48.1373810  45.5249335
 115.6094394  50.0187124  52.5451547 116.2817448  49.8104487  51.8964196
 114.7824181  49.8209210  52.1056779 121.5119966  46.6449065  54.5617208
 120.8647881  47.3439015  54.4681684 122.2820982  47.0785209  54.9293456
 120.4872433  58.5080495  50.3912565 120.3483518  58.1399279  51.2638503
 119.6987029  59.0228134  50.2196523 121.0820584  63.6089591  41.7338101
 121.2572340  63.1377634  42.5483724 120.3953372  64.2355357  41.9619362
 122.0377648  57.8862097  47.7801403 121.7027480  57.8462867  48.6759053
 121.5381593  57.2206813  47.3071813 116.0121892  53.2929727  53.3053984
 115.8741690  52.5609966  53.9065523 116.9226815  53.2038627  53.0238172
 118.6404192  53.0049687  52.7937663 119.3503811  52.3642879  52.7524282
 118.5973500  53.2562582  53.7163844 117.3533126  49.9914905  54.6133303
 116.8170483  49.5405643  55.2654899 116.7649835  50.1260813  53.8703767
 115.6481670  66.7578954  48.5077962 115.8878268  67.3897478  49.1856980
 114.8050866  66.4066994  48.7943321 116.7635385  49.4503556  37.1759767
 115.8864852  49.3292357  36.8122013 117.2393138  48.6589634  36.9238655
 108.2837525  54.2380716  47.2701274 108.9708565  53.9242446  46.6822289
 108.1285654  55.1422080  46.9968525 113.0872247  49.1270912  51.6986297
 113.0030436  48.5196582  50.9636707 112.2654954  49.6179931  51.6995794
 120.1609532  62.5658076  50.9119466 120.0879703  63.3713048  51.4238770
 119.7186925  62.7650042  50.0867487 119.9499311  61.8029846  44.4222287
 119.1666833  62.3451527  44.5160512 120.6492056  62.3203826  44.8216528
 119.8430930  49.7541859  46.7928177 119.4728718  49.2012899  47.4809083
 120.3390023  49.1499992  46.2403177 117.6720129  60.2139354  53.8883195
 118.3729588  60.8475837  54.0412589 117.2015244  60.5554085  53.1278834
 121.5208988  53.5103772  58.2001783 120.8449625  53.4097902  58.8704158
 122.3436622  53.3542986  58.6637780 113.2687847  59.7475709  50.8214298
 113.8541284  59.0019397  50.9542202 113.0712685  60.0579666  51.7050962
 116.1226502  62.7826956  45.8376740 115.4536877  63.2673084  45.3540780
 115.9839372  63.0296177  46.7520119 107.8605501  52.3181309  49.5418741
 107.8989601  51.7844900  50.3355859 107.3545794  51.7916515  48.9229718
 120.2631771  64.8170700  52.4359398 120.8150079  64.9802321  53.2008484
 120.6037964  65.4075138  51.7639423 115.2396264  47.1645850  53.0381283
 115.3037590  48.0260680  52.6258681 115.1763384  46.5519851  52.3053642
 114.7148536  49.2368982  56.6854317 115.3420575  48.8546059  57.2991842
 113.8576455  49.0183184  57.0510010 111.4914079  51.0445411  42.6172672
 111.7867520  50.1356090  42.5639726 110.5902115  51.0233151  42.2953675
 115.0208326  49.1201408  48.6000221 114.2994912  49.7337375  48.4607694
 115.8101582  49.6559173  48.5216867 117.8234640  46.4555834  54.8740873
 118.3469041  46.7018131  55.6367182 117.6046973  47.2875869  54.4544010
 113.2201921  48.7259509  42.7411997 112.8914627  47.8456888  42.5587103
 113.5741291  48.6707178  43.6288387 116.3343744  49.0132479  43.1087475
 116.6739816  49.5418400  42.3866083 116.7815864  49.3512885  43.8846042
 119.0287185  47.3969529  52.5590543 118.6884005  46.5977342  52.9611223
 118.3226191  47.6971240  51.9867376 119.6803656  44.4818842  51.0117866
 120.5029726  44.0079320  50.8896757 119.9241720  45.2609326  51.5116552
 118.3211891  47.5107100  41.3080768 119.0420253  47.8888353  40.8044485
 117.6977195  48.2295977  41.4115746 117.2042235  51.1737962  48.8209845
 117.0586816  51.4878266  49.7134126 116.7267439  51.7922863  48.2680743
 119.0638618  48.1640510  48.8690734 119.0500187  47.2681604  48.5323032
 119.7811046  48.1711174  49.5029020 120.9164749  48.5977851  50.9143862
 120.6582527  49.5194921  50.9128192 120.3849789  48.2008285  51.6044326
 111.6787897  53.7143307  51.7597506 111.1341365  54.4903115  51.8917780
 112.5567247  54.0614111  51.6016627 118.4675514  47.0454891  44.1378304
 118.5891425  46.1171537  44.3369192 118.1777556  47.0593577  43.2256620
 121.3366704  44.7309801  47.2745024 121.3588401  44.7949134  46.3197004
 121.7534763  43.8914310  47.4685530 112.4653919  52.8413203  54.6527663
 111.7235655  52.9895838  55.2392293 112.1446664  53.1021469  53.7894412
 120.4097582  62.3829181  54.4508053 120.7184708  62.1378328  55.3230752
 121.2073064  62.5875820  53.9626923 120.4318194  64.5367091  46.6813429
 119.9923184  64.0443470  47.3746286 121.1826311  63.9940059  46.4405505
 112.9110533  60.7278632  46.6838057 113.7368553  60.4282404  46.3036701
 112.5604585  59.9586254  47.1327846 117.8792066  60.0805100  48.7535731
 117.2572075  59.4175805  48.4537959 118.5496933  60.1066232  48.0709379
 111.1119138  58.6464958  47.6426991 110.2751046  58.2187133  47.4610992
 111.0842783  58.8397402  48.5797782 117.9516594  48.5586888  58.3468237
 118.0004749  49.4349011  57.9646007 118.4939108  48.0164281  57.7739880
 117.4405573  58.6309023  42.2294192 117.5893693  59.3144488  41.5760864
 118.2472016  58.6114113  42.7443647 120.1815882  49.3118261  55.1014596
 119.3119191  49.6051827  54.8297184 120.4175362  49.8958705  55.8221859
 115.1958206  54.6574201  43.2355261 114.9504248  53.7536531  43.4335471
 115.3654120  54.6591351  42.2934739 114.4653853  50.3902559  40.7341422
 113.7723098  50.4646914  40.0781458 114.2205605  49.6262902  41.2562939
 120.9400978  61.1257154  39.7005939 120.3674946  61.7447341  39.2476411
 121.5133772  61.6756516  40.2345861 121.3247777  52.4617967  37.0421992
 122.2706882  52.3324175  37.1110410 120.9462022  51.7232629  37.5191420
 121.2086470  56.5135713  58.5022649 122.1289479  56.6914312  58.6962695
 121.1736053  55.5691758  58.3502348 119.5090694  50.3867943  36.9776877
 118.6022150  50.0901056  37.0539590 119.7866675  50.0897761  36.1111163
 110.4268635  51.7074306  47.4275923 110.1071419  50.8539615  47.1350297
 109.8802063  51.9222885  48.1833890 114.2048542  54.4236747  51.1445430
 114.4234552  55.3553855  51.1633463 114.6174316  54.0644722  51.9300234
 121.1252760  44.9304833  43.1321118 120.3153488  44.5851918  43.5076364
 121.8137177  44.6212376  43.7208730 119.0776407  49.9969953  60.5348179
 118.9773134  50.9464310  60.4660270 118.8597949  49.6688192  59.6624249
 118.2789479  47.2454878  37.1188856 119.1408643  47.5709777  37.3784673
 118.4639823  46.4586374  36.6061922 110.2956895  55.3277218  49.3969045
 109.6020366  54.9131171  48.8838999 111.0429886  55.3697754  48.8002464
 118.9407677  53.4267092  59.3513240 118.4574759  54.2267452  59.5577129
 119.0268616  53.4375037  58.3980684 112.2093637  55.2595472  47.2735060
 112.1864325  55.3583159  46.3216943 112.5194274  56.1060622  47.5952226
 114.8681015  57.3171627  51.3881674 115.8224268  57.2855569  51.3211606
 114.6693539  56.8562250  52.2031900 115.4580397  55.8872743  53.9552472
 116.2773286  56.3816821  53.9787309 115.7317205  54.9704711  53.9270039
 113.2231244  62.8591246  48.4051872 113.0885712  62.0991647  47.8389870
 112.8063306  63.5832146  47.9380661 116.3800370  63.7560563  48.6170315
 116.2632754  64.7005996  48.5149005 115.5592816  63.4534125  49.0056114
 110.7115311  50.2210877  54.6544669 111.3574175  49.7109831  55.1431894
 110.5032462  50.9579558  55.2288094 119.2318922  44.4850921  40.4068565
 119.2197592  45.4292761  40.5636836 120.1242344  44.3021067  40.1128026
 117.4054884  64.4088825  51.8326243 118.3082130  64.4412435  52.1492738
 117.1792254  63.4789276  51.8472579 119.1608486  63.1619812  48.4936322
 118.2104117  63.1621673  48.3800694 119.4640972  62.4152546  47.9772356
 115.0512802  47.3678494  58.7519683 115.9144264  47.0115299  58.9623008
 114.4778213  47.0292389  59.4395087 121.9096236  66.3940731  50.7405318
 122.1604274  67.2787741  51.0062894 122.4455784  66.2145333  49.9680410
 119.1231280  69.5672633  47.2701274 119.8102320  69.2534363  46.6822289
 118.9679409  70.4713998  46.9968525 118.6999256  67.6473227  49.5418741
 118.7383355  67.1136817  50.3355859 118.1939549  67.1208432  48.9229718
 121.9512892  73.9756876  47.6426991 121.1144801  73.5479050  47.4610992
 121.9236538  74.1689319  48.5797782 121.2662389  67.0366224  47.4275923
 120.9465173  66.1831532  47.1350297 120.7195817  67.2514802  48.1833890
 121.1350649  70.6569136  49.3969045 120.4414120  70.2423088  48.8838999
 121.8823640  70.6989672  48.8002464 121.5509066  65.5502794  54.6544669
 122.1967929  65.0401748  55.1431894 121.3426217  66.2871476  55.2288094
  96.3307332  10.3571847  31.0875066  96.2531362  11.3079672  31.1663547
  95.7268976  10.0117720  31.7449993  93.9694162  13.1057241  35.2323268
  94.2090760  13.7375765  35.9102287  93.1263359  12.7545281  35.5188627
  94.4438994   9.1305243  32.5622047  93.7749369   9.6151371  32.0786087
  94.3051864   9.3774464  33.4765425  98.5844263  11.1648987  39.1604705
  99.1362571  11.3280609  39.9253790  98.9250456  11.7553425  38.4884730
  98.7530686  10.8845378  33.4058736  98.3135676  10.3921757  34.0991593
  99.5038803  10.3418346  33.1650811  91.5443736   9.2069533  35.1297179
  91.4098204   8.4469934  34.5635177  91.1275798   9.9310433  34.6625967
  94.7012862  10.1038850  35.3415621  94.5845246  11.0484283  35.2394311
  93.8805308   9.8012412  35.7301420  95.7267376  10.7567112  38.5571550
  96.6294623  10.7890723  38.8738045  95.5004746   9.8267563  38.5717885
 110.0263378  15.2986065  36.2188915 109.6881889  15.1827130  35.3309450
 110.8953146  14.8977230  36.1989921 105.8850193  17.1521542  32.2085806
 105.3215059  17.0611479  31.4402094 105.7702589  16.3321446  32.6888299
 110.5083161  16.4520917  42.1775121 110.4971802  16.0573715  41.3055625
 110.6703800  15.7186990  42.7708892 103.4314625  18.6472733  35.0470027
 104.2235917  18.3063558  34.6316326 103.6711276  18.7567708  35.9672180
 111.4649752  20.8192510  27.5200271 110.8137732  21.4046590  27.1334285
 112.2594115  21.3498704  27.5795309 105.3905379  17.9081647  27.9187406
 106.1636255  17.3610634  27.7800281 105.7430778  18.7725896  28.1301867
 107.2290422  19.2358029  41.1254305 106.9380288  20.1403660  41.0100971
 107.8647406  19.2774557  41.8398374 108.1546629  16.6134877  37.7155664
 108.7510201  16.3890900  37.0012627 108.2121600  15.8719623  38.3181112
 107.4467946  15.9702419  27.7530230 107.3304204  15.2947322  28.4211315
 107.5570206  15.4834793  26.9362383 109.7899487  15.4312566  31.4576920
 109.4257694  14.9043187  32.1689841 110.6466603  15.0411035  31.2843405
 112.1880307  18.9219444  38.1204099 111.8881030  19.8244483  38.0119906
 111.8431367  18.6551628  38.9725251 105.6392788  15.3733241  34.1540803
 104.7143285  15.2409455  34.3618495 105.8877202  16.1527461  34.6510745
 103.0001600  15.0166515  34.9884592 103.1293981  15.2700994  35.9024004
 102.3199051  15.6094223  34.6689247 107.1701087  25.6863765  31.0875066
 107.0925117  26.6371590  31.1663547 106.5662730  25.3409637  31.7449993
 107.9164689  15.6677084  43.3054400 108.6579373  16.2062128  43.0289224
 107.2101674  16.2943372  43.4625952 113.3920029  17.8106224  41.9026562
 113.8003385  17.3688635  41.1581194 112.6697290  17.2358852  42.1560755
 113.7148843  18.3707415  35.6578850 113.0857706  18.5353129  34.9554918
 113.3274505  18.7849024  36.4289815 117.5938075  19.3061853  33.0123214
 116.9089113  19.6860754  32.4620248 117.6781924  19.9157179  33.7455162
 114.8489007  16.9521812  39.6118558 115.0605902  17.5953571  38.9352939
 114.8018755  16.1184128  39.1440488 109.2676805  18.1081823  32.9228936
 109.7315151  18.3869526  32.1333558 109.0033603  17.2065267  32.7402026
 106.1600886  17.6553304  35.8608699 106.7302243  18.0840573  35.2226183
 106.7508998  17.3735889  36.5592885 108.2045691  14.2304975  29.7318501
 108.9069734  14.6826019  30.1992427 107.8726320  13.5888794  30.3598394
 106.6526053  12.8216732  44.1069710 106.0224713  13.5033013  44.3405107
 106.5462141  12.7099813  43.1622848 101.9471025  12.4888528  35.0335634
 101.1570079  12.7446056  34.5575745 102.4382272  13.3036866  35.1387675
 115.9634835  19.8293767  37.7840915 116.7852278  19.4273954  37.5023597
 115.9597237  19.7262001  38.7357031 103.8985770  12.8533107  31.9919111
 103.1016934  12.9651801  32.5102607 103.6711363  13.1919759  31.1260002
 109.7291438  19.3777810  39.9401626 109.7935871  19.8398217  40.7759797
 109.0202362  18.7475175  40.0683935 100.2308728  12.7419018  37.4650625
 100.4816766  13.6266028  37.7308201 100.7668276  12.5623620  36.6925717
 109.4439456  21.0445918  29.8080606 109.3085131  21.8897453  30.2365454
 109.9849268  21.2465195  29.0446540 102.8968853  18.5621356  30.3808531
 103.4093374  19.3564606  30.5314096 103.5491566  17.8647646  30.3142133
 104.7063738  21.6787112  32.4631284 104.8830366  22.6005077  32.2752268
 105.5020571  21.3645531  32.8925664 103.9916094  13.7251744  42.3393447
 103.8769609  12.8237001  42.6400546 103.1360612  13.9715441  41.9878264
 111.0707932  21.6669484  43.9380948 110.6271786  20.8805863  43.6201853
 111.7325146  21.8548635  43.2724839 105.8295053  23.1965286  38.4641627
 106.3802478  23.0682349  37.6918620 104.9906529  23.4960175  38.1136519
 113.1689170  21.9472284  41.9662349 113.1507646  22.7681165  41.4742618
 114.0909090  21.8226359  42.1912490 109.6262224  19.4616414  42.8085858
 110.1590561  18.7004702  42.5785166 109.0976305  19.1690065  43.5510012
 100.8617770  16.8910010  31.1568102 101.6992992  17.3007018  30.9401809
 101.0396038  15.9509452  31.1268295 110.9914937  18.5902406  30.3204670
 110.4636299  17.8555166  30.0077907 110.4902440  19.3677082  30.0744638
 115.9707783  16.7851427  35.4371716 115.3131457  17.4750688  35.5251845
 116.7748182  17.1747859  35.7805702 112.0435616  25.1180124  26.2436329
 111.3697315  25.4211820  26.8521287 112.4301438  25.9209204  25.8941786
 115.5475038  20.1201801  31.6154800 115.0937365  19.2792711  31.6719991
 114.9169005  20.7563199  31.9529581 113.9907977  21.9578297  32.5504619
 114.2830952  22.5183355  31.8316984 114.5006598  22.2506858  33.3057778
 100.8843941  14.2300725  31.8278835 100.6868341  13.6370086  31.1029902
 100.3290605  13.9252936  32.5454774 108.9541602  22.7358649  33.6398072
 108.9117781  22.9619495  32.7106604 109.8704301  22.5022023  33.7883873
 118.1574353  18.3937679  36.2539301 118.5910860  18.3012968  37.1022355
 118.8705934  18.3695179  35.6159317 107.0707403  19.6121678  33.4360034
 107.8648002  19.1171998  33.2342609 106.3599096  19.0839541  33.0727740
 111.8902248  21.9939773  37.7872402 111.9439270  22.5630709  38.5550118
 111.0217029  22.1641658  37.4226439 103.3790167  13.7564759  29.5119787
 102.4487755  13.6949215  29.7289749 103.4747639  13.2340712  28.7156428
 119.0189902  18.4361380  38.7872187 119.2125792  19.3407190  39.0331462
 118.9190521  17.9768799  39.6210772 114.0805011  18.5868122  44.3613067
 113.9290517  18.3578674  43.4443151 114.0709691  19.5438724  44.3744412
 110.8490347  16.1600035  39.3459334 111.7782407  16.3111195  39.1728301
 110.4281378  16.2484056  38.4907980 109.6478679  20.1850700  37.1157872
 109.5089765  19.8169484  37.9883810 108.8593275  20.6998339  36.9441829
 110.2426831  25.2859796  28.4583408 110.4178587  24.8147839  29.2729031
 109.5559619  25.9125562  28.6864669 111.1983894  19.5632302  34.5046709
 110.8633727  19.5233072  35.4004359 110.6987840  18.8977018  34.0317120
 105.1728138  14.9699932  40.0299290 105.0347936  14.2380171  40.6310830
 106.0833062  14.8808832  39.7483478 107.8010439  14.6819892  39.5182970
 108.5110058  14.0413084  39.4769589 107.7579747  14.9332786  40.4409151
 115.7897218  21.6187245  42.4389549 115.7309764  20.9346465  41.7720132
 116.1916736  22.3606235  41.9870175 104.8087917  28.4349159  35.2323268
 105.0484515  29.0667683  35.9102287 103.9657113  28.0837199  35.5188627
 115.7914625  19.5826829  40.6703529 114.9041404  19.2452751  40.7929928
 116.3613176  18.8509860  40.9072294  97.4443772  15.9150921  33.9946580
  98.1314812  15.6012651  33.4067596  97.2891901  16.8192285  33.7213832
 109.3215778  24.2428281  37.6364772 109.2485950  25.0483253  38.1484077
 108.8793171  24.4420247  36.8112794 109.1105558  23.4800051  31.1467594
 108.3273080  24.0221731  31.2405818 109.8098303  23.9974031  31.5461835
 111.7814462  24.1415115  39.7922931 112.4942434  24.7762580  39.7198832
 111.2904491  24.2378981  38.9762933 113.5031989  18.0466368  31.3640223
 112.5688268  18.1667830  31.1944927 113.6808657  17.1438835  31.1000232
 106.8326375  21.8909559  40.6128502 107.5335835  22.5246042  40.7657896
 106.3621490  22.2324290  39.8524141 111.5934835  24.4813859  32.5409222
 111.7757230  23.6635515  33.0036975 112.4167821  24.6981552  32.1034112
 111.9277001  23.4082044  29.8024271 112.4564767  22.8974499  29.1894433
 112.1905220  23.0924575  30.6669804 110.6815234  15.1873977  44.9247089
 110.0055871  15.0868107  45.5949464 111.5042868  15.0313191  45.3883086
 102.4294094  21.4245914  37.5459604 103.0147530  20.6789602  37.6787509
 102.2318932  21.7349870  38.4296268 105.2832749  24.4597161  32.5622047
 104.6143124  24.9443289  32.0786087 105.1445618  24.7066382  33.4765425
  97.0211748  13.9951514  36.2664048  97.0595848  13.4615105  37.0601166
  96.5152041  13.4686719  35.6475025 109.4238017  26.4940905  39.1604705
 109.9756325  26.6572526  39.9253790 109.7644211  27.0845343  38.4884730
 114.2748892  21.3202162  45.0153360 114.8188796  21.9332120  44.5208314
 113.6935736  21.8781741  45.5320373 100.6520326  12.7215616  29.3417979
 100.9473767  11.8126295  29.2885033  99.7508362  12.7003356  29.0198981
 112.5606405  24.4422880  36.1468387 112.4357544  23.6412620  35.6379333
 113.2185496  24.9369074  35.6582357 114.6241313  22.2431900  37.7747937
 113.6771649  22.1237251  37.7026264 114.9724086  21.3554398  37.8574199
 111.6287746  22.0384617  33.9752290 111.4812709  21.1101324  34.1559860
 112.4541240  22.0604707  33.4909365 115.2321868  22.8613175  35.0617162
 116.1568416  22.6556037  34.9241613 115.0637171  22.6129576  35.9706504
 106.3648482  12.8508167  35.5455151 106.2193063  13.1648470  36.4379433
 105.8873686  13.4693068  34.9926050 115.0217184  23.3798843  30.4179254
 115.1954062  22.8145265  29.6653106 115.5146076  24.1799738  30.2358744
 100.8394144  15.3913512  38.4842813 100.2947612  16.1673320  38.6163087
 101.7173494  15.7384316  38.3261934 101.6260166  14.5183408  41.3772969
 100.8841902  14.6666043  41.9637600 101.3052910  14.7791674  40.5139719
 109.5703829  24.0599386  41.1753359 109.8790955  23.8148533  42.0476059
 110.3679311  24.2646025  40.6872230 109.5924441  26.2137296  33.4058736
 109.1529431  25.7213675  34.0991593 110.3432558  25.6710264  33.1650811
 102.0716780  22.4048837  33.4083364 102.8974800  22.1052609  33.0282008
 101.7210832  21.6356459  33.8573153 107.0398313  21.7575305  35.4781038
 106.4178322  21.0946010  35.1783266 107.7103180  21.7836437  34.7954685
 100.2725385  20.3235163  34.3672298  99.4357293  19.8957338  34.1856299
 100.2449030  20.5167607  35.3043089 117.5977686  20.7798216  44.3514681
 116.8073230  20.7622355  43.8119180 117.3611041  21.3186510  45.1063717
 117.7175561  17.6290683  41.6647409 117.7673566  17.4640690  42.6062932
 117.6089484  16.7617942  41.2745290 106.6011820  20.3079228  28.9539498
 106.7499940  20.9914693  28.3006171 107.4078263  20.2884318  29.4688954
 119.2193758  20.0487624  41.9089431 118.9278566  20.4117605  42.7452892
 118.6065889  19.3354632  41.7302763 104.3564453  16.3344406  29.9600567
 104.1110495  15.4306736  30.1580777 104.5260367  16.3361556  29.0180045
 110.1007225  22.8027359  26.4251246 109.5281192  23.4217546  25.9721718
 110.6740019  23.3526720  26.9591168 113.3204485  23.0864509  27.5559828
 114.2535158  23.0210071  27.7592703 113.2327698  23.9220776  27.0974361
 110.3692716  18.1905918  45.2267955 111.2895726  18.3684517  45.4208002
 110.3342299  17.2461963  45.0747654  99.5874881  13.3844511  34.1521230
  99.2677666  12.5309820  33.8595604  99.0408309  13.5993089  34.9079197
 103.3654789  16.1006952  37.8690736 103.5840799  17.0324060  37.8878770
 103.7780563  15.7414927  38.6545540  99.4563141  17.0047423  36.1214351
  98.7626613  16.5901376  35.6084306 100.2036132  17.0467959  35.5247770
 108.1013924  15.1037297  46.0758547 107.6181006  15.9037657  46.2822436
 108.1874863  15.1145242  45.1225991 101.3699884  16.9365677  33.9980366
 101.3470572  17.0353364  33.0462249 101.6800520  17.7830827  34.3197532
 104.0287262  18.9941832  38.1126981 104.9830515  18.9625774  38.0456912
 103.8299785  18.5332455  38.9277207 104.6186644  17.5642948  40.6797778
 105.4379533  18.0587026  40.7032616 104.8923452  16.6474916  40.6515346
 102.3837490  24.5361451  35.1297179 102.2491958  23.7761852  34.5635177
 101.9669553  25.2602351  34.6625967 105.5406616  25.4330768  35.3415621
 105.4239001  26.3776201  35.2394311 104.7199063  25.1304330  35.7301420
  99.8721558  11.8981082  41.3789975 100.5180422  11.3880036  41.8677201
  99.6638709  12.6349763  41.9533401 112.3974950  18.9661929  46.8782116
 113.2666110  19.1402581  46.5168751 111.9181702  19.7856346  46.7557845
 106.5661130  26.0859030  38.5571550 107.4688377  26.1182640  38.8738045
 106.3398501  25.1559481  38.5717885 108.3214733  24.8390017  35.2181628
 107.3710364  24.8391878  35.1046001 108.6247219  24.0922751  34.7017663
 120.8657132  30.6277983  36.2188915 120.5275644  30.5119048  35.3309450
 121.7346900  30.2269148  36.1989921 116.7243948  32.4813459  32.2085806
 116.1608813  32.3903396  31.4402094 116.6096343  31.6613364  32.6888299
 121.3476915  31.7812835  42.1775121 121.3365556  31.3865633  41.3055625
 121.5097555  31.0478907  42.7708892 114.2708380  33.9764651  35.0470027
 115.0629672  33.6355476  34.6316326 114.5105030  34.0859626  35.9672180
 116.2299134  33.2373564  27.9187406 117.0030010  32.6902551  27.7800281
 116.5824533  34.1017814  28.1301867 118.0684176  34.5649947  41.1254305
 117.7774042  35.4695577  41.0100971 118.7041161  34.6066474  41.8398374
 118.9940383  31.9426795  37.7155664 119.5903956  31.7182818  37.0012627
 119.0515355  31.2011541  38.3181112 118.2861700  31.2994336  27.7530230
 118.1697959  30.6239240  28.4211315 118.3963960  30.8126710  26.9362383
 120.6293241  30.7604484  31.4576920 120.2651449  30.2335104  32.1689841
 121.4860357  30.3702953  31.2843405 116.4786543  30.7025159  34.1540803
 115.5537039  30.5701373  34.3618495 116.7270956  31.4819378  34.6510745
 113.8395354  30.3458433  34.9884592 113.9687735  30.5992911  35.9024004
 113.1592805  30.9386141  34.6689247 118.0094841  41.0155682  31.0875066
 117.9318871  41.9663508  31.1663547 117.4056485  40.6701555  31.7449993
 120.5012071  28.1883548  43.7436433 119.7245405  28.7477468  43.7339298
 121.1402634  28.6740331  44.2651303 118.7558443  30.9969001  43.3054400
 119.4973128  31.5354045  43.0289224 118.0495429  31.6235290  43.4625952
 120.5844853  28.0770748  39.2760119 121.4306048  28.5010162  39.4194768
 120.5243491  27.4204373  39.9698682 120.1070560  33.4373740  32.9228936
 120.5708905  33.7161443  32.1333558 119.8427358  32.5357185  32.7402026
 116.9994641  32.9845222  35.8608699 117.5695998  33.4132490  35.2226183
 117.5902752  32.7027807  36.5592885 119.0439446  29.5596893  29.7318501
 119.7463489  30.0117936  30.1992427 118.7120074  28.9180712  30.3598394
 117.4919807  28.1508649  44.1069710 116.8618468  28.8324930  44.3405107
 117.3855895  28.0391731  43.1622848 112.7864780  27.8180445  35.0335634
 111.9963834  28.0737974  34.5575745 113.2776027  28.6328783  35.1387675
 114.7379525  28.1825025  31.9919111 113.9410688  28.2943719  32.5102607
 114.5105117  28.5211677  31.1260002 120.5685193  34.7069728  39.9401626
 120.6329625  35.1690135  40.7759797 119.8596116  34.0767093  40.0683935
 111.0702483  28.0710936  37.4650625 111.3210521  28.9557946  37.7308201
 111.6062031  27.8915537  36.6925717 120.2833210  36.3737835  29.8080606
 120.1478885  37.2189371  30.2365454 120.8243023  36.5757113  29.0446540
 116.7700550  22.4529415  46.4694961 116.3767495  21.8995614  47.1442605
 117.5866690  22.7639994  46.8601479 113.7362608  33.8913273  30.3808531
 114.2487128  34.6856524  30.5314096 114.3885320  33.1939564  30.3142133
 115.5457492  37.0079030  32.4631284 115.7224121  37.9296994  32.2752268
 116.3414326  36.6937449  32.8925664 119.6868511  23.8687294  44.0615218
 120.4278224  24.4694447  43.9819680 119.9186434  23.1264932  43.5033260
 114.8309849  29.0543662  42.3393447 114.7163364  28.1528919  42.6400546
 113.9754367  29.3007358  41.9878264 116.6688808  38.5257204  38.4641627
 117.2196233  38.3974267  37.6918620 115.8300284  38.8252093  38.1136519
 120.4655979  34.7908331  42.8085858 120.9984316  34.0296620  42.5785166
 119.9370060  34.4981983  43.5510012 111.7011524  32.2201928  31.1568102
 112.5386746  32.6298936  30.9401809 111.8789792  31.2801370  31.1268295
 118.9565100  22.3511782  35.3094914 119.8218097  22.1554591  34.9500804
 119.0242609  22.1222134  36.2364271 121.8308692  33.9194324  30.3204670
 121.3030053  33.1847083  30.0077907 121.3296194  34.6969000  30.0744638
 116.5627419  24.5813990  32.6811281 117.1371171  24.3589172  31.9484474
 117.1498402  24.6502685  33.4339883 111.7237696  29.5592643  31.8278835
 111.5262095  28.9662004  31.1029902 111.1684360  29.2544853  32.5454774
 119.7034419  29.4515750  33.9473428 119.7583029  28.4989586  33.8715905
 118.8925621  29.6075189  34.4314727 117.6426779  28.0692809  31.7063807
 116.8294645  28.3686980  32.1128999 118.1385773  27.6748498  32.4238289
 119.7935357  38.0650566  33.6398072 119.7511536  38.2911413  32.7106604
 120.7098056  37.8313941  33.7883873 117.1340854  25.6411165  37.3225042
 117.7740233  25.4999924  36.6248005 116.3018384  25.3545678  36.9463644
 117.9101158  34.9413595  33.4360034 118.7041756  34.4463915  33.2342609
 117.1992850  34.4131458  33.0727740 114.2183921  29.0856677  29.5119787
 113.2881509  29.0241132  29.7289749 114.3141393  28.5632630  28.7156428
 114.1369470  25.6111490  32.0998029 114.3976288  26.5256823  31.9907189
 114.9586643  25.1435932  32.2494642 115.6094396  27.0249247  39.2696853
 116.2817449  26.8166609  38.6209502 114.7824182  26.8271333  38.8302086
 121.5119968  23.6511188  41.2862514 120.8647883  24.3501138  41.1926991
 122.2820983  24.0847332  41.6538762 120.4872434  35.5142617  37.1157872
 120.3483519  35.1461402  37.9883810 119.6987030  36.0290257  36.9441829
 121.0820586  40.6151714  28.4583408 121.2572341  40.1439757  29.2729031
 120.3953374  41.2417480  28.6864669 122.0377649  34.8924220  34.5046709
 121.7027482  34.8524990  35.4004359 121.5381595  34.2268936  34.0317120
 116.0121893  30.2991850  40.0299290 115.8741691  29.5672089  40.6310830
 116.9226816  30.2100750  39.7483478 118.6404194  30.0111809  39.5182970
 119.3503812  29.3705001  39.4769589 118.5973502  30.2624704  40.4409151
 117.3533128  26.9977027  41.3378610 116.8170485  26.5467766  41.9900206
 116.7649836  27.1322936  40.5949074 115.6481671  43.7641076  35.2323268
 115.8878269  44.3959601  35.9102287 114.8050867  43.4129116  35.5188627
 108.2837527  31.2442838  33.9946580 108.9708566  30.9304568  33.4067596
 108.1285655  32.1484203  33.7213832 113.0872249  26.1333035  38.4231604
 113.0030437  25.5258704  37.6882014 112.2654955  26.6242053  38.4241100
 120.1609533  39.5720199  37.6364772 120.0879704  40.3775170  38.1484077
 119.7186926  39.7712165  36.8112794 119.9499312  38.8091969  31.1467594
 119.1666834  39.3513649  31.2405818 120.6492058  39.3265949  31.5461835
 119.8430931  26.7603981  33.5173484 119.4728719  26.2075022  34.2054389
 120.3390024  26.1562115  32.9648484 117.6720130  37.2201476  40.6128502
 118.3729589  37.8537959  40.7657896 117.2015245  37.5616208  39.8524141
 121.5208989  30.5165895  44.9247089 120.8449626  30.4160024  45.5949464
 122.3436623  30.3605109  45.3883086 113.2687848  36.7537831  37.5459604
 113.8541285  36.0081519  37.6787509 113.0712686  37.0641788  38.4296268
 116.1226503  39.7889079  32.5622047 115.4536878  40.2735206  32.0786087
 115.9839373  40.0358299  33.4765425 107.8605503  29.3243432  36.2664048
 107.8989602  28.7907022  37.0601166 107.3545796  28.7978637  35.6475025
 120.2631772  41.8232822  39.1604705 120.8150080  41.9864444  39.9253790
 120.6037965  42.4137260  38.4884730 115.2396265  24.1707972  39.7626590
 115.3037592  25.0322803  39.3503988 115.1763385  23.5581974  39.0298948
 114.7148538  26.2431105  43.4099624 115.3420576  25.8608182  44.0237148
 113.8576456  26.0245307  43.7755317 111.4914080  28.0507534  29.3417979
 111.7867521  27.1418212  29.2885033 110.5902116  28.0295273  29.0198981
 115.0208327  26.1263530  35.3245528 114.2994913  26.7399498  35.1853001
 115.8101583  26.6621295  35.2462173 117.8234641  23.4617957  41.5986179
 118.3469043  23.7080253  42.3612489 117.6046974  24.2937992  41.1789317
 113.2201922  25.7321631  29.4657304 112.8914628  24.8519010  29.2832410
 113.5741293  25.6769300  30.3533693 116.3343745  26.0194601  29.8332782
 116.6739818  26.5480523  29.1111390 116.7815866  26.3575007  30.6091348
 119.0287186  24.4031652  39.2835850 118.6884006  23.6039465  39.6856530
 118.3226192  24.7033363  38.7112683 119.6803658  21.4880964  37.7363173
 120.5029727  21.0141443  37.6142063 119.9241721  22.2671448  38.2361859
 117.2042236  28.1800085  35.5455151 117.0586817  28.4940388  36.4379433
 116.7267440  28.7984985  34.9926050 119.0638619  25.1702633  35.5936041
 119.0500188  24.2743726  35.2568339 119.7811047  25.1773297  36.2274327
 120.9164750  25.6039973  37.6389168 120.6582528  26.5257044  37.6373499
 120.3849790  25.2070408  38.3289633 111.6787899  30.7205429  38.4842813
 111.1341367  31.4965237  38.6163087 112.5567248  31.0676234  38.3261934
 118.4675515  24.0517013  30.8623611 118.5891426  23.1233659  31.0614499
 118.1777558  24.0655699  29.9501927 112.4653920  29.8475326  41.3772969
 111.7235657  29.9957961  41.9637600 112.1446665  30.1083591  40.5139719
 120.4097583  39.3891304  41.1753359 120.7184710  39.1440451  42.0476059
 121.2073065  39.5937942  40.6872230 120.4318195  41.5429214  33.4058736
 119.9923185  41.0505592  34.0991593 121.1826312  41.0002181  33.1650811
 112.9110534  37.7340754  33.4083364 113.7368554  37.4344526  33.0282008
 112.5604586  36.9648377  33.8573153 117.8792067  37.0867223  35.4781038
 117.2572077  36.4237928  35.1783266 118.5496934  37.1128355  34.7954685
 111.1119139  35.6527081  34.3672298 110.2751048  35.2249255  34.1856299
 111.0842785  35.8459524  35.3043089 117.9516595  25.5649011  45.0713544
 118.0004750  26.4411133  44.6891313 118.4939109  25.0226404  44.4985187
 117.4405574  35.6371146  28.9539498 117.5893695  36.3206610  28.3006171
 118.2472018  35.6176236  29.4688954 120.1815883  26.3180383  41.8259902
 119.3119193  26.6113949  41.5542491 120.4175364  26.9020828  42.5467166
 115.1958207  31.6636324  29.9600567 114.9504249  30.7598654  30.1580777
 115.3654122  31.6653474  29.0180045 114.4653855  27.3964681  27.4586729
 113.7723100  27.4709036  26.8026765 114.2205607  26.6325025  27.9808246
 120.9400980  38.1319276  26.4251246 120.3674947  38.7509464  25.9721718
 121.5133773  38.6818638  26.9591168 121.2086471  33.5197835  45.2267955
 122.1289480  33.6976434  45.4208002 121.1736054  32.5753881  45.0747654
 110.4268636  28.7136429  34.1521230 110.1071420  27.8601737  33.8595604
 109.8802064  28.9285007  34.9079197 114.2048543  31.4298870  37.8690736
 114.4234553  32.3615978  37.8878770 114.6174317  31.0706844  38.6545540
 119.0776409  27.0032076  47.2593485 118.9773136  27.9526433  47.1905576
 118.8597951  26.6750315  46.3869555 110.2956896  32.3339340  36.1214351
 109.6020367  31.9193293  35.6084306 111.0429887  32.3759877  35.5247770
 118.9407679  30.4329215  46.0758547 118.4574760  31.2329575  46.2822436
 119.0268618  30.4437159  45.1225991 112.2093638  32.2657594  33.9980366
 112.1864326  32.3645282  33.0462249 112.5194275  33.1122745  34.3197532
 114.8681016  34.3233749  38.1126981 115.8224270  34.2917692  38.0456912
 114.6693540  33.8624373  38.9277207 115.4580398  32.8934865  40.6797778
 116.2773287  33.3878944  40.7032616 115.7317206  31.9766833  40.6515346
 113.2231245  39.8653369  35.1297179 113.0885713  39.1053770  34.5635177
 112.8063307  40.5894269  34.6625967 116.3800371  40.7622686  35.3415621
 116.2632755  41.7068118  35.2394311 115.5592817  40.4596247  35.7301420
 110.7115313  27.2272999  41.3789975 111.3574176  26.7171953  41.8677201
 110.5032464  27.9641681  41.9533401 117.4054885  41.4150948  38.5571550
 118.3082132  41.4474558  38.8738045 117.1792255  40.4851399  38.5717885
 119.1608487  40.1681934  35.2181628 118.2104118  40.1683796  35.1046001
 119.4640973  39.4214669  34.7017663 115.0512804  24.3740616  45.4764990
 115.9144265  24.0177421  45.6868314 114.4778214  24.0354511  46.1640394
 121.9096237  43.4002854  37.4650625 122.1604275  44.2849863  37.7308201
 122.4455785  43.2207455  36.6925717 119.1231281  46.5734756  33.9946580
 119.8102321  46.2596486  33.4067596 118.9679410  47.4776121  33.7213832
 118.6999257  44.6535349  36.2664048 118.7383357  44.1198940  37.0601166
 118.1939550  44.1270555  35.6475025 121.9512894  50.9818999  34.3672298
 121.1144802  50.5541173  34.1856299 121.9236539  51.1751442  35.3043089
 121.2662390  44.0428347  34.1521230 120.9465175  43.1893655  33.8595604
 120.7195818  44.2576925  34.9079197 121.1350650  47.6631258  36.1214351
 120.4414122  47.2485211  35.6084306 121.8823641  47.7051795  35.5247770
 121.5509067  42.5564917  41.3789975 122.1967931  42.0463871  41.8677201
 121.3426218  43.2933599  41.9533401   3.6498064  55.7763964 105.8964486
   2.9759762  56.0795661 106.5049444   4.0363886  56.5793045 105.5469943
   5.7405534  47.5672177 104.4311926   5.1234704  46.8419005 104.3344979
   5.2722022  48.3281538 104.0879000   7.6154804  53.3549448 107.1704309
   8.3105709  53.9756140 107.3891624   7.9577955  52.5044799 107.4456687
   1.7069673  53.4611199 106.0779403   1.1343640  54.0801387 105.6249875
   2.2802466  54.0110561 106.6119325   4.9266933  53.7448350 107.2087985
   5.8597606  53.6793911 107.4120861   4.8390145  54.5804616 106.7502518
   7.5554949  53.0614220 104.1691933   7.4768581  52.7274084 105.0627691
   8.3764616  53.5535988 104.1683405   5.1258901  50.3782215 103.7901911
   5.8294751  50.5832218 104.4059567   4.4021550  50.9458977 104.0550994
   7.0345598  50.8164745 105.8400371   7.8691202  50.3845943 105.6577846
   6.8729941  50.6446758 106.7677265  15.6629874  61.3334396 115.9355548
  16.3008284  61.2141143 115.2318888  15.5450716  62.2815240 115.9943500
  12.4719580  61.2861824 115.8717072  12.1338091  61.1702888 114.9837607
  13.3409348  60.8852989 115.8518079   8.3306396  63.1397300 111.8613963
   7.7671261  63.0487237 111.0930251   8.2158791  62.3197205 112.3416456
  13.9105954  66.8068268 107.1728428  13.2593934  67.3922348 106.7862442
  14.7050317  67.3374463 107.2323466   7.8361581  63.8957405 107.5715563
   8.6092457  63.3486392 107.4328438   8.1886980  64.7601654 107.7830024
  10.1727859  60.0550071 105.2034013  10.4253380  59.5331592 104.4417476
   9.2352418  59.8916217 105.3060696  15.2171142  59.0585849 113.0108756
  16.0034231  58.6405273 112.6599173  15.4809846  59.9631942 113.1790404
  15.3881219  64.4958700 107.7097413  14.7527052  64.5693326 108.4218317
  15.0578626  65.0852299 107.0316492  20.6179569  58.9961083 113.9141734
  21.3504741  58.4260300 114.1479564  19.8618925  58.6082683 114.3548240
   9.8924148  61.9578177 107.4058388   9.7760406  61.2823080 108.0739472
  10.0026408  61.4710551 106.5890541  12.2355689  61.4188324 111.1105077
  11.8713896  60.8918945 111.8217998  13.0922805  61.0286793 110.9371562
  11.8761176  56.4478224 106.1066425  12.0435578  57.3158460 106.4736896
  11.6858345  56.6105506 105.1827715  14.6336509  64.9095203 117.7732256
  14.3337232  65.8120242 117.6648063  14.2887569  64.6427386 118.6253409
  18.0333653  57.4277743 115.4529693  17.1250530  57.3593151 115.1588454
  17.9821249  57.9049688 116.2811518  11.8550397  58.9035881 107.0913092
  11.7350022  59.3492932 107.9298572  11.1602985  59.2521199 106.5326630
   9.6157289  71.6739523 110.7403223   9.5381319  72.6247348 110.8191704
   9.0118932  71.3285396 111.3978150  17.5535463  59.3757355 107.9193426
  18.4653319  59.6084741 107.7441124  17.0445110  59.9594399 107.3568505
  16.1605045  64.3583173 115.3107008  15.5313908  64.5228887 114.6083075
  15.7730707  64.7724783 116.0817972  20.0394277  65.2937611 112.6651371
  19.3545315  65.6736512 112.1148405  20.1238126  65.9032938 113.3983319
  11.7133007  64.0957581 112.5757093  12.1771353  64.3745284 111.7861715
  11.4489805  63.1941026 112.3930183  10.6501893  60.2180733 109.3846658
  11.3525936  60.6701777 109.8520584  10.3182522  59.5764552 110.0126551
  18.4091037  65.8169525 117.4369072  19.2308480  65.4149713 117.1551754
  18.4053440  65.7137759 118.3885188  26.4997030  62.1608274 113.7854044
  25.7460738  61.5915672 113.6298048  26.6344571  62.1270938 114.7324678
  11.8895658  67.0321676 109.4608763  11.7541333  67.8773212 109.8893611
  12.4305470  67.2340954 108.6974697   5.3425055  64.5497114 110.0336688
   5.8549576  65.3440364 110.1842253   5.9947768  63.8523405 109.9670290
   7.1519940  67.6662870 112.1159441   7.3286568  68.5880835 111.9280425
   7.9476773  67.3521290 112.5453821   3.3073972  62.8785768 110.8096259
   4.1449194  63.2882777 110.5929966   3.4852240  61.9385211 110.7796453
  15.2038404  60.5460849 106.4980092  14.6885027  61.3165454 106.7368479
  14.9315713  59.8725985 107.1213153  12.7885515  55.3910550 111.5565330
  11.9327111  55.0017400 111.3770969  13.2012467  55.4702511 110.6965116
  20.1772678  63.2993204 108.4333265  19.4002121  62.9604363 107.9888427
  20.8564159  63.3045827 107.7588230  14.9924707  58.4187941 108.3239873
  14.6874843  58.7334090 109.1750016  15.9455149  58.4969361 108.3667206
  13.4371139  64.5778165 109.9732827  12.9092501  63.8430924 109.6606064
  12.9358642  65.3552841 109.7272795  18.4163985  62.7727185 115.0899873
  17.7587660  63.4626446 115.1780002  19.2204384  63.1623617 115.4333859
  17.2269444  61.1271558 113.1403815  17.7401326  61.7601550 113.6425525
  17.8770668  60.5272753 112.7747175   8.4959454  57.2702292 106.3535324
   7.6596766  57.6076978 106.6744598   8.3564223  57.1351272 105.4162461
  11.5823739  62.3958375 102.9767800  10.6750801  62.1647628 103.1758949
  12.0794771  61.5995994 103.1641781  14.4891818  71.1055882 105.8964486
  13.8153517  71.4087579 106.5049444  14.8757640  71.9084962 105.5469943
  14.4885323  60.0012429 110.5164836  15.2357141  60.5133826 110.2071958
  14.7576912  59.6796482 111.3769229  12.7611973  62.4970970 107.4991790
  11.8523192  62.2130002 107.5964260  12.7907056  62.9170048 106.6395097
  17.9931240  66.1077559 111.2682957  17.5393567  65.2668469 111.3248148
  17.3625207  66.7438958 111.6057738  16.9364160  57.0369545 112.4983625
  16.1986916  56.5246931 112.8293867  17.1890933  56.5969927 111.6866902
  16.4364179  67.9454056 112.2032776  16.7287154  68.5059113 111.4845141
  16.9462800  68.2382617 112.9585935  11.3096867  60.1099590 113.6001585
  11.3645477  59.1573427 113.5244062  10.4988069  60.2659029 114.0842884
  12.4588060  64.0379713 104.8379868  12.0207490  63.3215572 104.3785506
  13.1998501  64.2655828 104.2764960   9.2489227  58.7276650 111.3591964
   8.4357092  59.0270821 111.7657156   9.7448221  58.3332339 112.0766446
  11.3997805  68.7234407 113.2926229  11.3573983  68.9495253 112.3634761
  12.3160503  68.4897782 113.4412030  20.5761175  62.3136910 110.8956187
  20.4379074  62.5038506 109.9677376  20.2197394  63.0756293 111.3524238
  20.6030555  64.3813437 115.9067459  21.0367062  64.2888726 116.7550513
  21.3162136  64.3570938 115.2687475   9.5163605  65.5997436 113.0888192
  10.3104204  65.1047756 112.8870766   8.8055298  65.0715299 112.7255897
  14.3358450  67.9815531 117.4400559  14.3895472  68.5506468 118.2078275
  13.4673231  68.1517416 117.0754596   5.8246369  59.7440518 109.1647944
   4.8943957  59.6824973 109.3817906   5.9203841  59.2216470 108.3684585
  21.4646104  64.4237138 118.4400344  21.6581995  65.3282949 118.6859619
  21.3646723  63.9644557 119.2738929  12.0934881  66.1726458 116.7686029
  11.9545967  65.8045242 117.6411967  11.3049478  66.6874097 116.5969986
  12.6883033  71.2735554 108.1111565  12.8634789  70.8023598 108.9257188
  12.0015821  71.9001321 108.3392826  13.6440096  65.5508061 114.1574866
  13.3089929  65.5108831 115.0532516  13.1444042  64.8852777 113.6845277
  16.5799288  62.8964095 104.4311926  15.9628459  62.1710923 104.3344979
  16.1115777  63.6573455 104.0879000   8.3697834  57.1149519 103.5533230
   7.4927300  56.9938320 103.1895477   8.8455587  56.3235598 103.3012119
  11.5561760  69.4675810 110.7995751  10.7729282  70.0097490 110.8933975
  12.2554505  69.9849789 111.1989992  14.8658410  55.2770439 113.4429956
  15.3627110  54.5240401 113.1231026  14.0945392  55.3134756 112.8773166
  22.7188168  60.9810805 115.0848248  22.7078044  61.8635520 114.7142181
  21.8505547  60.6282355 114.8902785  15.9488191  64.0342126 111.0168380
  15.0144470  64.1543589 110.8473084  16.1264859  63.1314593 110.7528389
  19.3360742  59.8759446 111.5518414  19.8021194  60.7087437 111.4778716
  19.7868243  59.4104427 112.2563672  17.4036973  66.2203267 108.5504566
  17.6796817  66.1059861 109.4598440  16.5341472  65.8220752 108.5116739
  14.0391037  70.4689618 112.1937379  14.2213432  69.6511274 112.6565132
  14.8624023  70.6857310 111.7562269  14.3733203  69.3957803 109.4552428
  14.9020969  68.8850257 108.8422590  14.6361422  69.0800333 110.3197961
   3.0976528  58.7091375 108.9946136   3.3929969  57.8002053 108.9413190
   2.1964564  58.6879114 108.6727138  15.0062607  70.4298639 115.7996544
  14.8813746  69.6288378 115.2907490  15.6641698  70.9244832 115.3110514
  17.0697515  68.2307659 117.4276094  16.1227851  68.1113010 117.3554421
  17.4180288  67.3430157 117.5102356   4.8264369  56.3905472 109.1185461
   4.4977076  55.5102851 108.9360567   5.1803740  56.3353141 110.0061850
  14.0743948  68.0260375 113.6280447  13.9268911  67.0977082 113.8088017
  14.8997442  68.0480466 113.1437522   7.9406193  56.6778442 109.4860939
   8.2802265  57.2064363 108.7639547   8.3878313  57.0158848 110.2619505
  17.6778070  68.8488934 114.7145319  18.6024618  68.6431795 114.5769771
  17.5093374  68.6005335 115.6234661   9.9274340  55.1753064 107.6854232
  10.6482702  55.5534316 107.1817948   9.3039644  55.8941940 107.7889210
  14.0705463  55.8798213 108.6212564  14.2869077  56.7622850 108.3201392
  13.5899530  55.4884426 107.8918206  17.4673386  69.3674601 110.0707411
  17.6410264  68.8021024 109.3181263  17.9602278  70.1675496 109.8886901
  10.0737963  54.7100854 110.5151768  10.1953874  53.7817500 110.7142656
   9.7840005  54.7239540 109.6030084  23.3212778  62.1311024 111.6897711
  23.7643924  61.3818349 111.2916834  22.4439288  62.1221160 111.3071443
  18.4548559  68.6841365 107.1704309  19.1499463  69.3048058 107.3891624
  18.7971709  67.8336717 107.4456687  20.3539982  66.1341071 108.6991640
  20.8791306  66.4728344 107.9740960  20.2662335  65.1988086 108.5154775
  12.0380643  72.2013054 113.0586893  11.5985633  71.7089433 113.7519750
  12.7888760  71.6586022 112.8178968   9.0468022  66.2954987 108.6067655
   9.1956142  66.9790451 107.9534328   9.8534465  66.2760077 109.1217111
  21.6649960  66.0363383 121.5617588  21.3734768  66.3993363 122.3981049
  21.0522091  65.3230391 121.3830920  22.8645642  63.6016262 114.0820158
  23.6992534  64.0406066 114.2457719  23.0004771  63.1254916 113.2628404
   6.8020655  62.3220164 109.6128724   6.5566697  61.4182494 109.8108934
   6.9716569  62.3237315 108.6708202   6.0716302  58.0548522 107.1114886
   5.3785547  58.1292877 106.4554922   5.8268054  57.2908866 107.6336403
  12.5463427  68.7903117 106.0779403  11.9737394  69.4093304 105.6249875
  13.1196221  69.3402479 106.6119325  15.7660687  69.0740267 107.2087985
  16.6991360  69.0085829 107.4120861  15.6783900  69.9096534 106.7502518
  18.3948704  68.3906138 104.1691933  18.3162335  68.0566001 105.0627691
  19.2158371  68.8827906 104.1683405  21.0926895  61.2567877 117.3768251
  21.0603215  60.3183878 117.5627935  21.7027519  61.3351914 116.6434076
  12.9310226  60.1263930 103.4195455  13.8769331  59.9970138 103.4883873
  12.5524471  59.3878592 103.8964883  26.9103445  62.3183884 116.5174288
  27.6406833  62.0569172 117.0781991  26.3010390  61.5812606 116.5576356
  24.9918742  60.4591746 117.1148739  24.2651906  60.3247711 116.5065231
  24.5766029  60.7668575 117.9205457  11.1153143  58.0513906 103.3550340
  10.2084598  57.7547019 103.4313054  11.3929124  57.7543724 102.4884627
  12.7315209  52.5950796 109.5094582  11.9215937  52.2497881 109.8849828
  13.4199626  52.2858340 110.0982193   9.8851928  54.9100842 103.4962320
  10.7471092  55.2355740 103.7558137  10.0702272  54.1232337 102.9835385
  18.0384564  53.7829368 110.6397543  17.4583233  54.4414172 110.2575595
  17.7720497  52.9606713 110.2284960  16.8209442  55.9429458 109.6953891
  15.9335297  56.2279109 109.4774086  17.2363431  55.7823222 108.8481168
  20.1723978  55.9675979 113.4108230  20.9484368  56.4572432 113.6832847
  19.4472112  56.3934034 113.8680100  22.6096537  56.6803599 114.4682171
  23.2041028  56.4399335 113.7575479  22.6823121  55.9610729 115.0955707
  15.9652656  65.7074133 103.7901911  16.6688506  65.9124136 104.4059567
  15.2415304  66.2750895 104.0550994  16.7950466  61.4583994 109.9104181
  16.7385667  61.9152546 109.0711814  17.3478808  60.6974679 109.7327024
  20.6055272  57.2473726 110.7354301  20.3492206  56.8470362 111.5662508
  19.9808140  57.9617520 110.6104440  24.9167610  59.9869799 113.2425592
  24.3567168  60.0562989 114.0157154  24.3111113  59.8110784 112.5225088
  17.8739353  66.1456662 105.8400371  18.7084957  65.7137861 105.6577846
  17.7123696  65.9738676 106.7677265  17.5285245  62.6488776 107.2056710
  17.4734049  62.4833047 106.2645154  16.9031300  63.3564808 107.3618900
  10.8381371  52.1496885 106.7842029  10.8260040  53.0938724 106.9410300
  11.7304792  51.9667030 106.4901490  26.5023628  76.6626313 115.9355548
  27.1402038  76.5433061 115.2318888  26.3844471  77.6107157 115.9943500
  23.3113334  76.6153741 115.8717072  22.9731846  76.4994806 114.9837607
  24.1803103  76.2144907 115.8518079  19.1700150  78.4689218 111.8613963
  18.6065015  78.3779155 111.0930251  19.0552545  77.6489122 112.3416456
  24.7499709  82.1360186 107.1728428  24.0987688  82.7214266 106.7862442
  25.5444072  82.6666380 107.2323466  18.6755336  79.2249323 107.5715563
  19.4486212  78.6778310 107.4328438  19.0280735  80.0893572 107.7830024
  21.4396585  77.9302553 117.3683822  22.0360158  77.7058576 116.6540785
  21.4971557  77.1887299 117.9709269  21.0121614  75.3841989 105.2034013
  21.2647134  74.8623510 104.4417476  20.0746173  75.2208134 105.3060696
  26.0564897  74.3877767 113.0108756  26.8427986  73.9697190 112.6599173
  26.3203601  75.2923859 113.1790404  26.2274974  79.8250617 107.7097413
  25.5920807  79.8985244 108.4218317  25.8972380  80.4144216 107.0316492
  31.4573324  74.3253000 113.9141734  32.1898496  73.7552217 114.1479564
  30.7012679  73.9374601 114.3548240  20.7317902  77.2870095 107.4058388
  20.6154161  76.6114998 108.0739472  20.8420162  76.8002469 106.5890541
  23.0749443  76.7480242 111.1105077  22.7107651  76.2210863 111.8217998
  23.9316559  76.3578711 110.9371562  28.9798744  68.0374574 118.3736343
  28.6482069  68.9069985 118.1497558  28.3844357  67.7210858 119.0530373
  22.7154930  71.7770142 106.1066425  22.8829333  72.6450378 106.4736896
  22.5252099  71.9397423 105.1827715  25.4730264  80.2387120 117.7732256
  25.1730987  81.1412159 117.6648063  25.1281323  79.9719304 118.6253409
  18.9242745  76.6900917 113.8068960  17.9993241  76.5577131 114.0146652
  19.1727158  77.4695137 114.3038902  28.8727407  72.7569661 115.4529693
  27.9644285  72.6885069 115.1588454  28.8215003  73.2341606 116.2811518
  22.6944151  74.2327799 107.0913092  22.5743776  74.6784850 107.9298572
  21.9996740  74.5813117 106.5326630  20.4551043  87.0031441 110.7403223
  20.3775073  87.9539266 110.8191704  19.8512687  86.6577313 111.3978150
  30.7389054  70.9586099 117.2307567  30.0963434  71.2518632 116.5847361
  30.2343982  70.8439019 118.0360764  28.3929217  74.7049272 107.9193426
  29.3047074  74.9376659 107.7441124  27.8838864  75.2886316 107.3568505
  26.6769985  79.1273900 121.5554719  27.0853341  78.6856311 120.8109351
  25.9547247  78.5526528 121.8088912  23.0301055  74.0646507 118.9288276
  23.8762250  74.4885920 119.0722925  22.9699693  73.4080131 119.6226839
  26.9998800  79.6875091 115.3107008  26.3707662  79.8520805 114.6083075
  26.6124462  80.1016700 116.0817972  30.8788032  80.6229529 112.6651371
  30.1939070  81.0028430 112.1148405  30.9631881  81.2324855 113.3983319
  26.1800500  71.7250875 120.5869449  25.9361432  72.4792936 120.0503725
  26.4560431  72.1036223 121.4216696  28.1338963  78.2689488 119.2646715
  28.3455858  78.9121247 118.5881096  28.0868711  77.4351804 118.7968645
  25.7365192  70.8807308 116.1683287  24.8749671  71.1788562 116.4600025
  25.7627627  71.0977707 115.2364320  22.5526762  79.4249499 112.5757093
  23.0165107  79.7037202 111.7861715  22.2883560  78.5232943 112.3930183
  19.4450843  78.9720980 115.5136856  20.0152200  79.4008249 114.8754340
  20.0358954  78.6903565 116.2121042  21.4895648  75.5472651 109.3846658
  22.1919691  75.9993695 109.8520584  21.1576276  74.9056470 110.0126551
  15.2320982  73.8056204 114.6863791  14.4420036  74.0613732 114.2103902
  15.7232229  74.6204542 114.7915832  29.2484791  81.1461443 117.4369072
  30.0702235  80.7441630 117.1551754  29.2447194  81.0429677 118.3885188
  17.1835727  74.1700783 111.6447268  16.3866890  74.2819477 112.1630764
  16.9561319  74.5087435 110.7788159  37.3390784  77.4900191 113.7854044
  36.5854493  76.9207590 113.6298048  37.4738325  77.4562856 114.7324678
  22.7289412  82.3613594 109.4608763  22.5935087  83.2065130 109.8893611
  23.2699225  82.5632871 108.6974697  16.1818810  79.8789032 110.0336688
  16.6943330  80.6732282 110.1842253  16.8341522  79.1815322 109.9670290
  17.9913694  82.9954788 112.1159441  18.1680323  83.9172753 111.9280425
  18.7870528  82.6813207 112.5453821  22.1324713  69.8563053 123.7143375
  22.8734426  70.4570206 123.6347837  22.3642636  69.1140691 123.1561417
  26.0781876  65.8844156 117.9907657  25.7346145  66.7745797 117.9146767
  26.4460838  65.6945813 117.1277242  14.1467726  78.2077686 110.8096259
  14.9842948  78.6174694 110.5929966  14.3245994  77.2677128 110.7796453
  26.0432159  75.8752767 106.4980092  25.5278782  76.6457371 106.7368479
  25.7709467  75.2017903 107.1213153  23.6279270  70.7202468 111.5565330
  22.7720866  70.3309318 111.3770969  24.0406221  70.7994428 110.6965116
  25.1578416  68.2548811 115.9556890  24.6543212  68.2178946 115.1424695
  25.4509023  69.1641554 116.0153546  21.4021302  68.3387541 114.9623071
  22.2674299  68.1430349 114.6028961  21.4698811  68.1097892 115.8892428
  31.0166433  78.6285121 108.4333265  30.2395875  78.2896281 107.9888427
  31.6957914  78.6337745 107.7588230  25.8318462  73.7479859 108.3239873
  25.5268597  74.0626008 109.1750016  26.7848904  73.8261279 108.3667206
  24.2764894  79.9070082 109.9732827  23.7486255  79.1722842 109.6606064
  23.7752396  80.6844759 109.7272795  29.2557740  78.1019103 115.0899873
  28.5981414  78.7918364 115.1780002  30.0598139  78.4915535 115.4333859
  19.0083621  70.5689748 112.3339438  19.5827373  70.3464930 111.6012631
  19.5954604  70.6378443 113.0868040  28.0663198  76.4563475 113.1403815
  28.5795080  77.0893467 113.6425525  28.7164422  75.8564671 112.7747175
  19.3353208  72.5994209 106.3535324  18.4990521  72.9368896 106.6744598
  19.1957978  72.4643189 105.4162461  21.3106289  67.4430997 111.0614508
  20.6570701  67.1280015 110.4371123  21.2686763  66.8206738 111.7874331
  22.4217494  77.7250292 102.9767800  21.5144555  77.4939546 103.1758949
  22.9188526  76.9287912 103.1641781  25.3285573  86.4347800 105.8964486
  24.6547271  86.7379496 106.5049444  25.7151395  87.2376880 105.5469943
  24.5444029  73.9312931 115.3862155  23.6266591  74.1527878 115.2283843
  24.9604173  74.0059241 114.5273863  25.3279077  75.3304347 110.5164836
  26.0750896  75.8425744 110.2071958  25.5970667  75.0088399 111.3769229
  23.6005727  77.8262887 107.4991790  22.6916946  77.5421920 107.5964260
  23.6300811  78.2461966 106.6395097  28.8324995  81.4369477 111.2682957
  28.3787322  80.5960387 111.3248148  28.2018961  82.0730875 111.6057738
  27.7757914  72.3661463 112.4983625  27.0380671  71.8538849 112.8293867
  28.0284688  71.9261844 111.6866902  27.2757934  83.2745974 112.2032776
  27.5680908  83.8351031 111.4845141  27.7856554  83.5674535 112.9585935
  27.8769541  65.1437715 113.0925394  28.1828418  64.2835078 112.8051309
  28.6022146  65.7355335 112.8924388  14.1693898  75.5468401 111.4806992
  13.9718297  74.9537762 110.7558059  13.6140562  75.2420612 112.1982931
  22.1490621  75.4391508 113.6001585  22.2039231  74.4865344 113.5244062
  21.3381823  75.5950947 114.0842884  23.2981815  79.3671631 104.8379868
  22.8601245  78.6507490 104.3785506  24.0392256  79.5947746 104.2764960
  20.0882981  74.0568568 111.3591964  19.2750847  74.3562738 111.7657156
  20.5841975  73.6624256 112.0766446  22.2391559  84.0526325 113.2926229
  22.1967738  84.2787171 112.3634761  23.1554258  83.8189699 113.4412030
  25.6857193  74.5210392 120.1906858  26.0406581  74.7481865 121.0501324
  26.3329324  74.8528769 119.5684113  31.4154930  77.6428828 110.8956187
  31.2772828  77.8330424 109.9677376  31.0591149  78.4048211 111.3524238
  19.5797056  71.6286923 116.9753199  20.2196435  71.4875682 116.2776162
  18.7474586  71.3421437 116.5991801  31.4424309  79.7105355 115.9067459
  31.8760816  79.6180644 116.7550513  32.1555890  79.6862855 115.2687475
  20.3557360  80.9289354 113.0888192  21.1497958  80.4339674 112.8870766
  19.6449052  80.4007217 112.7255897  25.1752204  83.3107449 117.4400559
  25.2289227  83.8798385 118.2078275  24.3066986  83.4809334 117.0754596
  16.6640123  75.0732435 109.1647944  15.7337711  75.0116891 109.3817906
  16.7597595  74.5508388 108.3684585  16.5825672  71.5987248 111.7526186
  16.8432490  72.5132581 111.6435346  17.4042845  71.1311691 111.9022799
  32.3039859  79.7529056 118.4400344  32.4975749  80.6574866 118.6859619
  32.2040477  79.2936475 119.2738929  23.9576170  69.6386946 120.9390671
  23.3104085  70.3376896 120.8455148  24.7277185  70.0723090 121.3066919
  24.1340304  77.4767711 118.9987491  25.0632364  77.6278871 118.8256458
  23.7131334  77.5651732 118.1436138  22.9328636  81.5018376 116.7686029
  22.7939721  81.1337160 117.6411967  22.1443232  82.0166015 116.5969986
  23.5276788  86.6027472 108.1111565  23.7028543  86.1315515 108.9257188
  22.8409576  87.2293238 108.3392826  24.4833851  80.8799978 114.1574866
  24.1483684  80.8400748 115.0532516  23.9837797  80.2144694 113.6845277
  27.4193043  78.2256013 104.4311926  26.8022213  77.5002841 104.3344979
  26.9509531  78.9865373 104.0879000  29.0747174  82.9354921 122.0917706
  29.0159720  82.2514141 121.4248289  29.4766693  83.6773911 121.6398332
  19.2091589  72.4441437 103.5533230  18.3321055  72.3230238 103.1895477
  19.6849342  71.6527515 103.3012119  29.0764582  80.8994505 120.3231686
  28.1891360  80.5620427 120.4458085  29.6463133  80.1677536 120.5600451
  22.3955515  84.7967727 110.7995751  21.6123036  85.3389407 110.8933975
  23.0948260  85.3141707 111.1989992  25.7052165  70.6062357 113.4429956
  26.2020864  69.8532319 113.1231026  24.9339146  70.6426673 112.8773166
  33.5581922  76.3102722 115.0848248  33.5471798  77.1927438 114.7142181
  32.6899301  75.9574273 114.8902785  26.7881945  79.3634044 111.0168380
  25.8538224  79.4835506 110.8473084  26.9658614  78.4606511 110.7528389
  22.2887133  72.7479740 113.1701641  21.9184921  72.1950780 113.8582546
  22.7846226  72.1437873 112.6176641  30.1754497  75.2051363 111.5518414
  30.6414949  76.0379355 111.4778716  30.6261997  74.7396345 112.2563672
  28.2430728  81.5495185 108.5504566  28.5190572  81.4351779 109.4598440
  27.3735227  81.1512669 108.5116739  28.1471159  67.5731950 115.5909315
  27.2334239  67.8036177 115.7591522  28.5764261  67.6570394 116.4423347
  27.9177618  75.7621842 118.0909209  27.2649068  76.0097750 117.4361662
  28.2957998  74.9485980 117.7571686  24.8784792  85.7981535 112.1937379
  25.0607186  84.9803191 112.6565132  25.7017778  86.0149228 111.7562269
  25.2126957  84.7249721 109.4552428  25.7414724  84.2142175 108.8422590
  25.4755177  84.4092251 110.3197961  17.6852467  70.1583731 119.4154747
  17.7493794  71.0198561 119.0032145  17.6219587  69.5457732 118.6827105
  13.9370282  74.0383292 108.9946136  14.2323723  73.1293971 108.9413190
  13.0358318  74.0171032 108.6727138  25.8456361  85.7590556 115.7996544
  25.7207501  84.9580296 115.2907490  26.5035452  86.2536750 115.3110514
  17.4664529  72.1139289 114.9773685  16.7451115  72.7275256 114.8381158
  18.2557785  72.6497054 114.8990331  27.9091270  83.5599576 117.4276094
  26.9621605  83.4404928 117.3554421  28.2574043  82.6722074 117.5102356
  20.2690843  69.4493715 121.2514336  20.7925245  69.6956012 122.0140646
  20.0503176  70.2813750 120.8317474  15.6658124  71.7197390 109.1185461
  15.3370830  70.8394769 108.9360567  16.0197495  71.6645059 110.0061850
  24.9137703  83.3552293 113.6280447  24.7662665  82.4269000 113.8088017
  25.7391196  83.3772383 113.1437522  18.7799947  72.0070360 109.4860939
  19.1196020  72.5356281 108.7639547  19.2272068  72.3450766 110.2619505
  28.5171825  84.1780851 114.7145319  29.4418372  83.9723713 114.5769771
  28.3487128  83.9297252 115.6234661  21.4743388  70.3907410 118.9364007
  21.1340208  69.5915223 119.3384687  20.7682394  70.6909121 118.3640840
  22.1259860  67.4756723 117.3891330  22.9485929  67.0017201 117.2670220
  22.3697923  68.2547207 117.8890016  20.7668094  70.5044981 107.6854232
  21.4876457  70.8826234 107.1817948  20.1433398  71.2233858 107.7889210
  24.9099217  71.2090130 108.6212564  25.1262832  72.0914768 108.3201392
  24.4293284  70.8176344 107.8918206  19.6498439  74.1675843 115.1983309
  19.5043019  74.4816146 116.0907590  19.1723642  74.7860744 114.6454207
  21.5094821  71.1578391 115.2464198  21.4956390  70.2619485 114.9096496
  22.2267249  71.1649055 115.8802484  23.3620952  71.5915732 117.2917326
  23.1038730  72.5132802 117.2901656  22.8305992  71.1946166 117.9817790
  28.3067141  84.6966519 110.0707411  28.4804018  84.1312941 109.3181263
  28.7996032  85.4967414 109.8886901  20.9131717  70.0392772 110.5151768
  21.0347629  69.1109418 110.7142656  20.6233760  70.0531458 109.6030084
  23.7822908  67.7247682 113.6518488  23.8044605  67.7887015 112.6970468
  24.1990967  66.8852191 113.8458994  34.1606532  77.4602942 111.6897711
  34.6037678  76.7110267 111.2916834  33.2833042  77.4513078 111.3071443
  29.2942313  84.0133283 107.1704309  29.9893218  84.6339976 107.3891624
  29.6365463  83.1628634 107.4456687  31.1933736  81.4632989 108.6991640
  31.7185061  81.8020261 107.9740960  31.1056089  80.5280004 108.5154775
  22.8774397  87.5304972 113.0586893  22.4379388  87.0381351 113.7519750
  23.6282514  86.9877940 112.8178968  31.0025518  78.9458359 121.3175566
  31.0523523  78.7808366 122.2591089  30.8939441  78.0785618 120.9273447
  19.8861776  81.6246904 108.6067655  20.0349897  82.3082369 107.9534328
  20.6928220  81.6051994 109.1217111  28.2929280  74.9289287 122.6334873
  29.1939143  74.7895752 122.3418871  28.3677254  75.0943742 123.5733051
  22.6272085  72.3056141 121.4788059  21.7575395  72.5989708 121.2070648
  22.8631566  72.8896586 122.1995323  32.5043714  81.3655300 121.5617588
  32.2128523  81.7285281 122.3981049  31.8915846  80.6522308 121.3830920
  33.7039397  78.9308180 114.0820158  34.5386288  79.3697984 114.2457719
  33.8398526  78.4546833 113.2628404  30.7530903  76.4887915 120.0297646
  31.2285024  76.6815561 119.2216497  29.8296468  76.5447101 119.7841030
  17.6414409  77.6512082 109.6128724  17.3960451  76.7474412 109.8108934
  17.8110324  77.6529232 108.6708202  25.3311119  68.5235758 118.9953480
  25.8493063  69.2596785 118.6699968  24.9766252  68.8299752 119.8300239
  16.9110057  73.3840440 107.1114886  16.2179302  73.4584795 106.4554922
  16.6661809  72.6200783 107.6336403  25.5823713  64.9436041 114.5154376
  25.8625467  64.2759230 115.1414803  26.3674320  65.1365137 114.0029040
  23.3857182  84.1195035 106.0779403  22.8131149  84.7385222 105.6249875
  23.9589975  84.6694397 106.6119325  29.4532572  73.3653675 118.2625952
  30.4049995  73.4651773 118.2838176  29.2836022  72.5731943 118.7724036
  27.4746951  70.4509258 118.4485353  26.8796883  70.7314271 117.7531841
  27.1896648  70.9403159 119.2202094  26.6054442  84.4032185 107.2087985
  27.5385115  84.3377747 107.4120861  26.5177654  85.2388452 106.7502518
  29.2342458  83.7198055 104.1691933  29.1556090  83.3857919 105.0627691
  30.0552125  84.2119823 104.1683405  31.9320649  76.5859795 117.3768251
  31.8996970  75.6475795 117.5627935  32.5421273  76.6643831 116.6434076
  23.7703980  75.4555848 103.4195455  24.7163085  75.3262056 103.4883873
  23.3918225  74.7170509 103.8964883  32.0815138  73.3770838 117.4226534
  31.5654187  72.5929295 117.2356463  32.9655086  73.0489555 117.5873054
  29.7425865  67.1211854 113.3822347  29.5450686  66.8126942 114.2665679
  30.3525570  67.8473493 113.5120277  37.7497199  77.6475801 116.5174288
  38.4800588  77.3861090 117.0781991  37.1404145  76.9104523 116.5576356
  35.8312496  75.7883664 117.1148739  35.1045660  75.6539629 116.5065231
  35.4159783  76.0960493 117.9205457  21.9546897  73.3805824 103.3550340
  21.0478353  73.0838937 103.4313054  22.2322878  73.0835642 102.4884627
  23.5708963  67.9242714 109.5094582  22.7609691  67.5789799 109.8849828
  24.2593380  67.6150257 110.0982193  25.4999511  67.0020760 111.1318878
  26.0530550  67.4216214 111.7908902  25.7369598  66.0756509 111.1741834
  20.7245682  70.2392759 103.4962320  21.5864846  70.5647657 103.7558137
  20.9096026  69.4524255 102.9835385  28.8778319  69.1121286 110.6397543
  28.2976988  69.7706090 110.2575595  28.6114251  68.2898630 110.2284960
  27.3281885  68.5126343 112.8418863  27.8281663  68.6242878 112.0333182
  27.9717493  68.2087396 113.4819671  27.6603197  71.2721376 109.6953891
  26.7729052  71.5571027 109.4774086  28.0757186  71.1115139 108.8481168
  31.0117733  71.2967897 113.4108230  31.7878123  71.7864349 113.6832847
  30.2865867  71.7225951 113.8680100  33.4490291  72.0095516 114.4682171
  34.0434782  71.7691252 113.7575479  33.5216875  71.2902647 115.0955707
  26.8046410  81.0366051 103.7901911  27.5082260  81.2416053 104.4059567
  26.0809059  81.6042813 104.0550994  27.6344220  76.7875912 109.9104181
  27.5779422  77.2444463 109.0711814  28.1872563  76.0266597 109.7327024
  31.4449026  72.5765644 110.7354301  31.1885960  72.1762279 111.5662508
  30.8201894  73.2909438 110.6104440  35.7561364  75.3161717 113.2425592
  35.1960922  75.3854906 114.0157154  35.1504867  75.1402702 112.5225088
  28.7133107  81.4748580 105.8400371  29.5478711  81.0429778 105.6577846
  28.5517450  81.3030594 106.7677265  28.3679000  77.9780693 107.2056710
  28.3127803  77.8124965 106.2645154  27.7425055  78.6856726 107.3618900
  21.6775125  67.4788802 106.7842029  21.6653795  68.4230642 106.9410300
  22.5698547  67.2958948 106.4901490  25.4927245  64.0731579 111.0387965
  24.7259640  63.5190066 111.1844648  25.9037950  64.1453448 111.9002117
  37.3417383  91.9918231 115.9355548  37.9795792  91.8724978 115.2318888
  37.2238225  92.9399075 115.9943500  34.1507089  91.9445659 115.8717072
  33.8125600  91.8286724 114.9837607  35.0196857  91.5436824 115.8518079
  30.0093905  93.7981136 111.8613963  29.4458770  93.7071072 111.0930251
  29.8946300  92.9781040 112.3416456  35.5893463  97.4652103 107.1728428
  34.9381443  98.0506184 106.7862442  36.3837826  97.9958298 107.2323466
  29.5149090  94.5541240 107.5715563  30.2879966  94.0070227 107.4328438
  29.8674489  95.4185490 107.7830024  32.2790340  93.2594471 117.3683822
  32.8753912  93.0350494 116.6540785  32.3365311  92.5179217 117.9709269
  31.8515368  90.7133906 105.2034013  32.1040889  90.1915428 104.4417476
  30.9139927  90.5500052 105.3060696  36.8958651  89.7169685 113.0108756
  37.6821740  89.2989108 112.6599173  37.1597355  90.6215777 113.1790404
  37.0668728  95.1542535 107.7097413  36.4314561  95.2277162 108.4218317
  36.7366135  95.7436134 107.0316492  42.2967078  89.6544918 113.9141734
  43.0292250  89.0844135 114.1479564  41.5406434  89.2666519 114.3548240
  31.5711657  92.6162012 107.4058388  31.4547915  91.9406916 108.0739472
  31.6813917  92.1294386 106.5890541  33.9143198  92.0772160 111.1105077
  33.5501405  91.5502781 111.8217998  34.7710314  91.6870629 110.9371562
  39.8192498  83.3666492 118.3736343  39.4875823  84.2361903 118.1497558
  39.2238112  83.0502776 119.0530373  33.5548685  87.1062059 106.1066425
  33.7223087  87.9742296 106.4736896  33.3645854  87.2689341 105.1827715
  36.3124018  95.5679038 117.7732256  36.0124741  96.4704077 117.6648063
  35.9675078  95.3011221 118.6253409  29.7636500  92.0192835 113.8068960
  28.8386996  91.8869049 114.0146652  30.0120913  92.7987054 114.3038902
  39.7121162  88.0861578 115.4529693  38.8038039  88.0176987 115.1588454
  39.6608758  88.5633523 116.2811518  33.5337906  89.5619717 107.0913092
  33.4137531  90.0076768 107.9298572  32.8390494  89.9105034 106.5326630
  31.2944798 102.3323359 110.7403223  31.2168828 103.2831184 110.8191704
  30.6906441 101.9869231 111.3978150  41.5782808  86.2878017 117.2307567
  40.9357188  86.5810550 116.5847361  41.0737737  86.1730937 118.0360764
  39.2322972  90.0341190 107.9193426  40.1440828  90.2668577 107.7441124
  38.7232619  90.6178234 107.3568505  37.5163740  94.4565818 121.5554719
  37.9247096  94.0148228 120.8109351  36.7941001  93.8818445 121.8088912
  33.8694810  89.3938425 118.9288276  34.7156005  89.8177838 119.0722925
  33.8093447  88.7372049 119.6226839  37.8392554  95.0167008 115.3107008
  37.2101417  95.1812723 114.6083075  37.4518216  95.4308618 116.0817972
  41.7181786  95.9521446 112.6651371  41.0332824  96.3320348 112.1148405
  41.8025635  96.5616773 113.3983319  37.0194255  87.0542793 120.5869449
  36.7755187  87.8084853 120.0503725  37.2954185  87.4328140 121.4216696
  38.9732718  93.5981405 119.2646715  39.1849613  94.2413165 118.5881096
  38.9262466  92.7643722 118.7968645  36.5758947  86.2099226 116.1683287
  35.7143426  86.5080479 116.4600025  36.6021381  86.4269625 115.2364320
  33.3920516  94.7541416 112.5757093  33.8558862  95.0329119 111.7861715
  33.1277314  93.8524861 112.3930183  30.2844597  94.3012898 115.5136856
  30.8545954  94.7300166 114.8754340  30.8752709  94.0195483 116.2121042
  32.3289402  90.8764569 109.3846658  33.0313445  91.3285613 109.8520584
  31.9970031  90.2348388 110.0126551  26.0714736  89.1348121 114.6863791
  25.2813790  89.3905650 114.2103902  26.5625983  89.9496459 114.7915832
  40.0878546  96.4753361 117.4369072  40.9095989  96.0733548 117.1551754
  40.0840949  96.3721595 118.3885188  28.0229481  89.4992701 111.6447268
  27.2260645  89.6111395 112.1630764  27.7955074  89.8379353 110.7788159
  48.1784539  92.8192109 113.7854044  47.4248247  92.2499507 113.6298048
  48.3132080  92.7854774 114.7324678  33.5683167  97.6905511 109.4608763
  33.4328842  98.5357047 109.8893611  34.1092979  97.8924789 108.6974697
  27.0212564  95.2080949 110.0336688  27.5337085  96.0024200 110.1842253
  27.6735277  94.5107240 109.9670290  28.8307449  98.3246706 112.1159441
  29.0074077  99.2464670 111.9280425  29.6264282  98.0105125 112.5453821
  32.9718467  85.1854970 123.7143375  33.7128181  85.7862124 123.6347837
  33.2036390  84.4432608 123.1561417  36.9175630  81.2136073 117.9907657
  36.5739900  82.1037715 117.9146767  37.2854593  81.0237731 117.1277242
  24.9861481  93.5369604 110.8096259  25.8236703  93.9466612 110.5929966
  25.1639749  92.5969046 110.7796453  36.8825913  91.2044684 106.4980092
  36.3672536  91.9749289 106.7368479  36.6103221  90.5309821 107.1213153
  34.4673024  86.0494385 111.5565330  33.6114620  85.6601236 111.3770969
  34.8799976  86.1286346 110.6965116  35.9972171  83.5840728 115.9556890
  35.4936966  83.5470864 115.1424695  36.2902778  84.4933471 116.0153546
  32.2415057  83.6679458 114.9623071  33.1068053  83.4722267 114.6028961
  32.3092565  83.4389810 115.8892428  41.8560187  93.9577039 108.4333265
  41.0789630  93.6188199 107.9888427  42.5351668  93.9629662 107.7588230
  36.6712216  89.0771777 108.3239873  36.3662352  89.3917926 109.1750016
  37.6242658  89.1553196 108.3667206  35.1158648  95.2362000 109.9732827
  34.5880010  94.5014759 109.6606064  34.6146151  96.0136676 109.7272795
  40.0951494  93.4311020 115.0899873  39.4375169  94.1210282 115.1780002
  40.8991893  93.8207452 115.4333859  29.8477376  85.8981666 112.3339438
  30.4221128  85.6756848 111.6012631  30.4348358  85.9670361 113.0868040
  38.9056953  91.7855393 113.1403815  39.4188835  92.4185385 113.6425525
  39.5558177  91.1856589 112.7747175  30.1746963  87.9286127 106.3535324
  29.3384275  88.2660814 106.6744598  30.0351732  87.7935107 105.4162461
  32.1500043  82.7722915 111.0614508  31.4964456  82.4571932 110.4371123
  32.1080518  82.1498656 111.7874331  33.2611248  93.0542210 102.9767800
  32.3538310  92.8231464 103.1758949  33.7582280  92.2579829 103.1641781
  36.1679327 101.7639717 105.8964486  35.4941026 102.0671414 106.5049444
  36.5545149 102.5668798 105.5469943  35.3837784  89.2604849 115.3862155
  34.4660345  89.4819796 115.2283843  35.7997927  89.3351159 114.5273863
  36.1672831  90.6596264 110.5164836  36.9144650  91.1717661 110.2071958
  36.4364421  90.3380317 111.3769229  34.4399482  93.1554805 107.4991790
  33.5310701  92.8713838 107.5964260  34.4694565  93.5753884 106.6395097
  39.6718749  96.7661394 111.2682957  39.2181076  95.9252304 111.3248148
  39.0412716  97.4022793 111.6057738  38.6151669  87.6953381 112.4983625
  37.8774425  87.1830767 112.8293867  38.8678442  87.2553762 111.6866902
  38.1151688  98.6037891 112.2032776  38.4074663  99.1642948 111.4845141
  38.6250309  98.8966452 112.9585935  38.7163296  80.4729633 113.0925394
  39.0222173  79.6126996 112.8051309  39.4415901  81.0647253 112.8924388
  25.0087652  90.8760319 111.4806992  24.8112052  90.2829680 110.7558059
  24.4534316  90.5712529 112.1982931  32.9884376  90.7683426 113.6001585
  33.0432985  89.8157262 113.5244062  32.1775578  90.9242865 114.0842884
  34.1375569  94.6963549 104.8379868  33.6994999  93.9799408 104.3785506
  34.8786010  94.9239663 104.2764960  30.9276736  89.3860485 111.3591964
  30.1144601  89.6854656 111.7657156  31.4235730  88.9916174 112.0766446
  33.0785314  99.3818242 113.2926229  33.0361492  99.6079089 112.3634761
  33.9948012  99.1481617 113.4412030  36.5250947  89.8502310 120.1906858
  36.8800335  90.0773783 121.0501324  37.1723079  90.1820687 119.5684113
  42.2548684  92.9720746 110.8956187  42.1166583  93.1622342 109.9677376
  41.8984903  93.7340129 111.3524238  30.4190810  86.9578841 116.9753199
  31.0590190  86.8167600 116.2776162  29.5868341  86.6713354 116.5991801
  42.2818064  95.0397273 115.9067459  42.7154571  94.9472562 116.7550513
  42.9949645  95.0154773 115.2687475  31.1951114  96.2581271 113.0888192
  31.9891713  95.7631591 112.8870766  30.4842807  95.7299134 112.7255897
  36.0145959  98.6399367 117.4400559  36.0682981  99.2090303 118.2078275
  35.1460740  98.8101252 117.0754596  27.5033878  90.4024353 109.1647944
  26.5731466  90.3408809 109.3817906  27.5991350  89.8800306 108.3684585
  27.4219427  86.9279166 111.7526186  27.6826244  87.8424499 111.6435346
  28.2436599  86.4603608 111.9022799  43.1433613  95.0820973 118.4400344
  43.3369504  95.9866784 118.6859619  43.0434232  94.6228392 119.2738929
  34.7969924  84.9678864 120.9390671  34.1497839  85.6668814 120.8455148
  35.5670940  85.4015008 121.3066919  34.9734059  92.8059629 118.9987491
  35.9026119  92.9570788 118.8256458  34.5525089  92.8943650 118.1436138
  33.7722390  96.8310293 116.7686029  33.6333476  96.4629078 117.6411967
  32.9836987  97.3457933 116.5969986  34.3670542 101.9319390 108.1111565
  34.5422298 101.4607433 108.9257188  33.6803330 102.5585156 108.3392826
  35.3227605  96.2091896 114.1574866  34.9877438  96.1692666 115.0532516
  34.8231551  95.5436612 113.6845277  38.2586797  93.5547930 104.4311926
  37.6415968  92.8294758 104.3344979  37.7903286  94.3157291 104.0879000
  39.9140929  98.2646839 122.0917706  39.8553475  97.5806059 121.4248289
  40.3160447  99.0065829 121.6398332  30.0485343  87.7733355 103.5533230
  29.1714809  87.6522155 103.1895477  30.5243096  86.9819433 103.3012119
  39.9158336  96.2286423 120.3231686  39.0285115  95.8912344 120.4458085
  40.4856887  95.4969454 120.5600451  33.2349269 100.1259645 110.7995751
  32.4516791 100.6681325 110.8933975  33.9342014 100.6433625 111.1989992
  36.5445919  85.9354274 113.4429956  37.0414619  85.1824237 113.1231026
  35.7732901  85.9718591 112.8773166  44.3975677  91.6394640 115.0848248
  44.3865553  92.5219355 114.7142181  43.5293056  91.2866191 114.8902785
  37.6275700  94.6925962 111.0168380  36.6931979  94.8127424 110.8473084
  37.8052368  93.7898428 110.7528389  33.1280888  88.0771657 113.1701641
  32.7578675  87.5242698 113.8582546  33.6239980  87.4729791 112.6176641
  41.0148251  90.5343281 111.5518414  41.4808703  91.3671273 111.4778716
  41.4655752  90.0688263 112.2563672  39.0824482  96.8787102 108.5504566
  39.3584326  96.7643697 109.4598440  38.2128981  96.4804587 108.5116739
  38.9864914  82.9023868 115.5909315  38.0727994  83.1328095 115.7591522
  39.4158015  82.9862312 116.4423347  38.7571372  91.0913760 118.0909209
  38.1042823  91.3389667 117.4361662  39.1351752  90.2777898 117.7571686
  35.7178546 101.1273453 112.1937379  35.9000941 100.3095109 112.6565132
  36.5411532 101.3441145 111.7562269  36.0520712 100.0541638 109.4552428
  36.5808478  99.5434093 108.8422590  36.3148931  99.7384168 110.3197961
  28.5246222  85.4875648 119.4154747  28.5887548  86.3490479 119.0032145
  28.4613342  84.8749650 118.6827105  24.7764037  89.3675210 108.9946136
  25.0717478  88.4585888 108.9413190  23.8752073  89.3462949 108.6727138
  36.6850116 101.0882474 115.7996544  36.5601255 100.2872214 115.2907490
  37.3429207 101.5828667 115.3110514  28.3058284  87.4431206 114.9773685
  27.5844870  88.0567174 114.8381158  29.0951540  87.9788971 114.8990331
  38.7485024  98.8891494 117.4276094  37.8015360  98.7696845 117.3554421
  39.0967797  98.0013992 117.5102356  31.1084597  84.7785633 121.2514336
  31.6318999  85.0247929 122.0140646  30.8896931  85.6105668 120.8317474
  26.5051878  87.0489308 109.1185461  26.1764585  86.1686686 108.9360567
  26.8591249  86.9936976 110.0061850  35.7531457  98.6844210 113.6280447
  35.6056420  97.7560918 113.8088017  36.5784951  98.7064301 113.1437522
  29.6193702  87.3362277 109.4860939  29.9589774  87.8648199 108.7639547
  30.0665822  87.6742683 110.2619505  39.3565579  99.5072769 114.7145319
  40.2812127  99.3015630 114.5769771  39.1880883  99.2589170 115.6234661
  32.3137142  85.7199328 118.9364007  31.9733963  84.9207141 119.3384687
  31.6076149  86.0201039 118.3640840  32.9653614  82.8048640 117.3891330
  33.7879684  82.3309119 117.2670220  33.2091678  83.5839124 117.8890016
  31.6061849  85.8336899 107.6854232  32.3270211  86.2118152 107.1817948
  30.9827153  86.5525776 107.7889210  35.7492972  86.5382048 108.6212564
  35.9656586  87.4206686 108.3201392  35.2687039  86.1468261 107.8918206
  30.4892193  89.4967761 115.1983309  30.3436774  89.8108064 116.0907590
  30.0117397  90.1152661 114.6454207  32.3488576  86.4870309 115.2464198
  32.3350145  85.5911402 114.9096496  33.0661004  86.4940973 115.8802484
  34.2014707  86.9207649 117.2917326  33.9432484  87.8424720 117.2901656
  33.6699747  86.5238084 117.9817790  39.1460895 100.0258436 110.0707411
  39.3197773  99.4604859 109.3181263  39.6389787 100.8259331 109.8886901
  31.7525472  85.3684689 110.5151768  31.8741383  84.4401336 110.7142656
  31.4627514  85.3823375 109.6030084  34.6216662  83.0539600 113.6518488
  34.6438359  83.1178933 112.6970468  35.0384721  82.2144108 113.8458994
  45.0000287  92.7894859 111.6897711  45.4431433  92.0402185 111.2916834
  44.1226797  92.7804996 111.3071443  40.1336068  99.3425201 107.1704309
  40.8286972  99.9631893 107.3891624  40.4759218  98.4920552 107.4456687
  42.0327491  96.7924906 108.6991640  42.5578815  97.1312179 107.9740960
  41.9449844  95.8571922 108.5154775  33.7168152 102.8596890 113.0586893
  33.2773142 102.3673268 113.7519750  34.4676269 102.3169857 112.8178968
  41.8419272  94.2750276 121.3175566  41.8917277  94.1100284 122.2591089
  41.7333195  93.4077535 120.9273447  30.7255531  96.9538822 108.6067655
  30.8743651  97.6374286 107.9534328  31.5321974  96.9343912 109.1217111
  39.1323034  90.2581204 122.6334873  40.0332897  90.1187669 122.3418871
  39.2071009  90.4235659 123.5733051  33.4665840  87.6348059 121.4788059
  32.5969149  87.9281625 121.2070648  33.7025320  88.2188504 122.1995323
  43.3437469  96.6947218 121.5617588  43.0522277  97.0577198 122.3981049
  42.7309600  95.9814226 121.3830920  44.5433151  94.2600098 114.0820158
  45.3780043  94.6989902 114.2457719  44.6792280  93.7838751 113.2628404
  41.5924657  91.8179832 120.0297646  42.0678779  92.0107479 119.2216497
  40.6690223  91.8739018 119.7841030  28.4808164  92.9804000 109.6128724
  28.2354206  92.0766330 109.8108934  28.6504078  92.9821150 108.6708202
  36.1704874  83.8527676 118.9953480  36.6886817  84.5888703 118.6699968
  35.8160006  84.1591669 119.8300239  27.7503811  88.7132357 107.1114886
  27.0573056  88.7876712 106.4554922  27.5055563  87.9492701 107.6336403
  36.4217468  80.2727959 114.5154376  36.7019222  79.6051148 115.1414803
  37.2068075  80.4657054 114.0029040  34.2250936  99.4486952 106.0779403
  33.6524903 100.0677140 105.6249875  34.7983730  99.9986314 106.6119325
  40.2926326  88.6945593 118.2625952  41.2443749  88.7943690 118.2838176
  40.1229777  87.9023861 118.7724036  38.3140706  85.7801176 118.4485353
  37.7190638  86.0606189 117.7531841  38.0290402  86.2695077 119.2202094
  37.4448196  99.7324103 107.2087985  38.3778869  99.6669664 107.4120861
  37.3571409 100.5680369 106.7502518  40.0736213  99.0489973 104.1691933
  39.9949844  98.7149837 105.0627691  40.8945880  99.5411741 104.1683405
  42.7714404  91.9151712 117.3768251  42.7390724  90.9767713 117.5627935
  43.3815028  91.9935749 116.6434076  34.6097735  90.7847765 103.4195455
  35.5556840  90.6553973 103.4883873  34.2311980  90.0462427 103.8964883
  42.9208892  88.7062756 117.4226534  42.4047941  87.9221212 117.2356463
  43.8048841  88.3781472 117.5873054  40.5819619  82.4503771 113.3822347
  40.3844440  82.1418859 114.2665679  41.1919325  83.1765410 113.5120277
  48.5890954  92.9767719 116.5174288  49.3194342  92.7153007 117.0781991
  47.9797899  92.2396441 116.5576356  46.6706251  91.1175582 117.1148739
  45.9439414  90.9831547 116.5065231  46.2553538  91.4252410 117.9205457
  32.7940652  88.7097742 103.3550340  31.8872107  88.4130854 103.4313054
  33.0716633  88.4127560 102.4884627  34.4102718  83.2534631 109.5094582
  33.6003446  82.9081716 109.8849828  35.0987135  82.9442175 110.0982193
  36.3393266  82.3312678 111.1318878  36.8924305  82.7508132 111.7908902
  36.5763352  81.4048426 111.1741834  31.5639437  85.5684677 103.4962320
  32.4258601  85.8939575 103.7558137  31.7489781  84.7816173 102.9835385
  39.7172073  84.4413203 110.6397543  39.1370742  85.0998007 110.2575595
  39.4508006  83.6190548 110.2284960  38.1675639  83.8418261 112.8418863
  38.6675418  83.9534796 112.0333182  38.8111247  83.5379314 113.4819671
  38.4996951  86.6013294 109.6953891  37.6122806  86.8862944 109.4774086
  38.9150940  86.4407057 108.8481168  41.8511487  86.6259815 113.4108230
  42.6271877  87.1156267 113.6832847  41.1259621  87.0517869 113.8680100
  44.2884046  87.3387434 114.4682171  44.8828537  87.0983170 113.7575479
  44.3610630  86.6194564 115.0955707  37.6440165  96.3657968 103.7901911
  38.3476015  96.5707971 104.4059567  36.9202813  96.9334730 104.0550994
  38.4737975  92.1167830 109.9104181  38.4173176  92.5736381 109.0711814
  39.0266317  91.3558514 109.7327024  42.2842781  87.9057561 110.7354301
  42.0279715  87.5054197 111.5662508  41.6595649  88.6201355 110.6104440
  46.5955119  90.6453635 113.2425592  46.0354677  90.7146824 114.0157154
  45.9898622  90.4694619 112.5225088  39.5526862  96.8040498 105.8400371
  40.3872466  96.3721696 105.6577846  39.3911205  96.6322511 106.7677265
  39.2072754  93.3072611 107.2056710  39.1521558  93.1416882 106.2645154
  38.5818809  94.0148644 107.3618900  32.5168880  82.8080720 106.7842029
  32.5047549  83.7522560 106.9410300  33.4092301  82.6250865 106.4901490
  36.3320999  79.4023497 111.0387965  35.5653395  78.8481983 111.1844648
  36.7431704  79.4745365 111.9002117  44.9900843 107.2737577 115.8717072
  44.6519355 107.1578641 114.9837607  45.8590611 106.8728742 115.8518079
  40.8487659 109.1273053 111.8613963  40.2852524 109.0362990 111.0930251
  40.7340054 108.3072958 112.3416456  46.4287218 112.7944021 107.1728428
  45.7775197 113.3798101 106.7862442  47.2231581 113.3250216 107.2323466
  40.3542845 109.8833158 107.5715563  41.1273721 109.3362145 107.4328438
  40.7068244 110.7477407 107.7830024  42.6909123 106.0425824 105.2034013
  42.9434643 105.5207345 104.4417476  41.7533682 105.8791970 105.3060696
  47.7352406 105.0461603 113.0108756  48.5215495 104.6281026 112.6599173
  47.9991110 105.9507695 113.1790404  47.9062483 110.4834453 107.7097413
  47.2708316 110.5569079 108.4218317  47.5759889 111.0728052 107.0316492
  53.1360833 104.9836836 113.9141734  53.8686005 104.4136053 114.1479564
  52.3800188 104.5958436 114.3548240  42.4105411 107.9453930 107.4058388
  42.2941670 107.2698834 108.0739472  42.5207671 107.4586304 106.5890541
  44.7536952 107.4064077 111.1105077  44.3895160 106.8794698 111.8217998
  45.6104068 107.0162546 110.9371562  50.6586253  98.6958410 118.3736343
  50.3269578  99.5653821 118.1497558  50.0631866  98.3794694 119.0530373
  44.3942439 102.4353977 106.1066425  44.5616842 103.3034213 106.4736896
  44.2039608 102.5981259 105.1827715  40.6030254 107.3484753 113.8068960
  39.6780750 107.2160967 114.0146652  40.8514667 108.1278972 114.3038902
  44.3731660 104.8911634 107.0913092  44.2531285 105.3368685 107.9298572
  43.6784249 105.2396952 106.5326630  42.1338552 117.6615276 110.7403223
  42.0562582 118.6123101 110.8191704  41.5300196 117.3161149 111.3978150
  50.0716726 105.3633108 107.9193426  50.9834582 105.5960494 107.7441124
  49.5626373 105.9470152 107.3568505  47.4152701 101.5391144 116.1683287
  46.5537180 101.8372397 116.4600025  47.4415136 101.7561542 115.2364320
  44.2314271 110.0833334 112.5757093  44.6952616 110.3621037 111.7861715
  43.9671069 109.1816779 112.3930183  41.1238352 109.6304816 115.5136856
  41.6939709 110.0592084 114.8754340  41.7146463 109.3487400 116.2121042
  43.1683157 106.2056487 109.3846658  43.8707200 106.6577530 109.8520584
  42.8363785 105.5640305 110.0126551  36.9108491 104.4640039 114.6863791
  36.1207545 104.7197568 114.2103902  37.4019738 105.2788377 114.7915832
  38.8623236 104.8284618 111.6447268  38.0654399 104.9403313 112.1630764
  38.6348828 105.1671271 110.7788159  44.4076921 113.0197429 109.4608763
  44.2722596 113.8648965 109.8893611  44.9486734 113.2216707 108.6974697
  37.8606319 110.5372867 110.0336688  38.3730839 111.3316117 110.1842253
  38.5129031 109.8399158 109.9670290  39.6701203 113.6538623 112.1159441
  39.8467832 114.5756588 111.9280425  40.4658037 113.3397043 112.5453821
  47.7569385  96.5427991 117.9907657  47.4133654  97.4329633 117.9146767
  48.1248347  96.3529649 117.1277242  35.8255235 108.8661521 110.8096259
  36.6630457 109.2758530 110.5929966  36.0033503 107.9260964 110.7796453
  47.7219668 106.5336602 106.4980092  47.2066291 107.3041207 106.7368479
  47.4496976 105.8601738 107.1213153  45.3066779 101.3786303 111.5565330
  44.4508375 100.9893153 111.3770969  45.7193730 101.4578264 110.6965116
  46.8365925  98.9132646 115.9556890  46.3330721  98.8762781 115.1424695
  47.1296532  99.8225389 116.0153546  43.0808811  98.9971376 114.9623071
  43.9461808  98.8014185 114.6028961  43.1486320  98.7681728 115.8892428
  52.6953942 109.2868957 108.4333265  51.9183384 108.9480116 107.9888427
  53.3745423 109.2921580 107.7588230  47.5105971 104.4063694 108.3239873
  47.2056106 104.7209843 109.1750016  48.4636413 104.4845114 108.3667206
  45.9552403 110.5653918 109.9732827  45.4273764 109.8306677 109.6606064
  45.4539905 111.3428594 109.7272795  40.6871130 101.2273584 112.3339438
  41.2614882 101.0048765 111.6012631  41.2742113 101.2962278 113.0868040
  49.7450707 107.1147311 113.1403815  50.2582589 107.7477303 113.6425525
  50.3951931 106.5148506 112.7747175  41.0140717 103.2578045 106.3535324
  40.1778030 103.5952731 106.6744598  40.8745487 103.1227025 105.4162461
  42.9893798  98.1014833 111.0614508  42.3358210  97.7863850 110.4371123
  42.9474272  97.4790573 111.7874331  44.1005003 108.3834128 102.9767800
  43.1932064 108.1523381 103.1758949  44.5976035 107.5871747 103.1641781
  47.0073082 117.0931635 105.8964486  46.3334780 117.3963332 106.5049444
  47.3938904 117.8960715 105.5469943  46.2231538 104.5896766 115.3862155
  45.3054100 104.8111713 115.2283843  46.6391682 104.6643077 114.5273863
  47.0066586 105.9888182 110.5164836  47.7538405 106.5009579 110.2071958
  47.2758176 105.6672235 111.3769229  45.2793236 108.4846723 107.4991790
  44.3704455 108.2005755 107.5964260  45.3088320 108.9045801 106.6395097
  49.4545423 103.0245298 112.4983625  48.7168180 102.5122684 112.8293867
  49.7072197 102.5845680 111.6866902  49.5557050  95.8021550 113.0925394
  49.8615927  94.9418914 112.8051309  50.2809655  96.3939170 112.8924388
  35.8481407 106.2052237 111.4806992  35.6505806 105.6121597 110.7558059
  35.2928071 105.9004447 112.1982931  43.8278130 106.0975343 113.6001585
  43.8826740 105.1449180 113.5244062  43.0169332 106.2534782 114.0842884
  44.9769324 110.0255466 104.8379868  44.5388754 109.3091325 104.3785506
  45.7179765 110.2531581 104.2764960  41.7670490 104.7152403 111.3591964
  40.9538356 105.0146574 111.7657156  42.2629484 104.3208092 112.0766446
  53.0942439 108.3012663 110.8956187  52.9560337 108.4914259 109.9677376
  52.7378658 109.0632046 111.3524238  41.2584565 102.2870759 116.9753199
  41.8983944 102.1459518 116.2776162  40.4262095 102.0005272 116.5991801
  42.0344869 111.5873189 113.0888192  42.8285467 111.0923509 112.8870766
  41.3236561 111.0591052 112.7255897  38.3427632 105.7316271 109.1647944
  37.4125220 105.6700726 109.3817906  38.4385104 105.2092223 108.3684585
  38.2613181 102.2571084 111.7526186  38.5219999 103.1716417 111.6435346
  39.0830354 101.7895526 111.9022799  45.2064297 117.2611307 108.1111565
  45.3816052 116.7899351 108.9257188  44.5197085 117.8877074 108.3392826
  49.0980552 108.8839848 104.4311926  48.4809722 108.1586676 104.3344979
  48.6297040 109.6449208 104.0879000  40.8879097 103.1025272 103.5533230
  40.0108564 102.9814073 103.1895477  41.3636851 102.3111351 103.3012119
  44.0743024 115.4551563 110.7995751  43.2910545 115.9973243 110.8933975
  44.7735769 115.9725542 111.1989992  47.3839674 101.2646192 113.4429956
  47.8808373 100.5116154 113.1231026  46.6126655 101.3010509 112.8773166
  48.4669454 110.0217879 111.0168380  47.5325733 110.1419342 110.8473084
  48.6446123 109.1190346 110.7528389  43.9674642 103.4063575 113.1701641
  43.5972430 102.8534615 113.8582546  44.4633735 102.8021709 112.6176641
  51.8542006 105.8635199 111.5518414  52.3202458 106.6963190 111.4778716
  52.3049506 105.3980180 112.2563672  49.9218237 112.2079020 108.5504566
  50.1978081 112.0935614 109.4598440  49.0522736 111.8096505 108.5116739
  49.8258668  98.2315786 115.5909315  48.9121748  98.4620012 115.7591522
  50.2551770  98.3154230 116.4423347  46.8914466 115.3833556 109.4552428
  47.4202233 114.8726010 108.8422590  47.1542686 115.0676086 110.3197961
  39.3639976 100.8167566 119.4154747  39.4281303 101.6782397 119.0032145
  39.3007096 100.2041568 118.6827105  35.6157791 104.6967128 108.9946136
  35.9111232 103.7877806 108.9413190  34.7145827 104.6754867 108.6727138
  39.1452038 102.7723124 114.9773685  38.4238624 103.3859092 114.8381158
  39.9345294 103.3080889 114.8990331  37.3445633 102.3781225 109.1185461
  37.0158339 101.4978604 108.9360567  37.6985004 102.3228894 110.0061850
  40.4587456 102.6654195 109.4860939  40.7983529 103.1940116 108.7639547
  40.9059577 103.0034601 110.2619505  43.1530897 101.0491246 118.9364007
  42.8127717 100.2499059 119.3384687  42.4469903 101.3492957 118.3640840
  43.8047369  98.1340558 117.3891330  44.6273438  97.6601036 117.2670220
  44.0485432  98.9131042 117.8890016  42.4455603 101.1628817 107.6854232
  43.1663966 101.5410069 107.1817948  41.8220907 101.8817693 107.7889210
  46.5886726 101.8673966 108.6212564  46.8050340 102.7498603 108.3201392
  46.1080793 101.4760179 107.8918206  41.3285947 104.8259679 115.1983309
  41.1830528 105.1399982 116.0907590  40.8511151 105.4444579 114.6454207
  43.1882330 101.8162227 115.2464198  43.1743899 100.9203320 114.9096496
  43.9054758 101.8232891 115.8802484  45.0408461 102.2499567 117.2917326
  44.7826239 103.1716638 117.2901656  44.5093501 101.8530002 117.9817790
  42.5919226 100.6976607 110.5151768  42.7135137  99.7693253 110.7142656
  42.3021269 100.7115293 109.6030084  45.4610417  98.3831517 113.6518488
  45.4832114  98.4470851 112.6970468  45.8778476  97.5436026 113.8458994
  50.9729822 114.6717118 107.1704309  51.6680727 115.2923811 107.3891624
  51.3152972 113.8212470 107.4456687  52.8721245 112.1216824 108.6991640
  53.3972570 112.4604097 107.9740960  52.7843598 111.1863839 108.5154775
  41.5649285 112.2830740 108.6067655  41.7137406 112.9666204 107.9534328
  42.3715729 112.2635830 109.1217111  39.3201918 108.3095917 109.6128724
  39.0747960 107.4058247 109.8108934  39.4897833 108.3113068 108.6708202
  47.0098628  99.1819594 118.9953480  47.5280572  99.9180621 118.6699968
  46.6553761  99.4883587 119.8300239  38.5897566 104.0424275 107.1114886
  37.8966811 104.1168630 106.4554922  38.3449318 103.2784619 107.6336403
  47.2611222  95.6019876 114.5154376  47.5412976  94.9343065 115.1414803
  48.0461829  95.7948972 114.0029040  45.0644691 114.7778870 106.0779403
  44.4918658 115.3969057 105.6249875  45.6377484 115.3278232 106.6119325
  48.2841951 115.0616020 107.2087985  49.2172624 114.9961582 107.4120861
  48.1965163 115.8972287 106.7502518  50.9129967 114.3781891 104.1691933
  50.8343599 114.0441754 105.0627691  51.7339634 114.8703659 104.1683405
  45.4491489 106.1139683 103.4195455  46.3950594 105.9845891 103.4883873
  45.0705734 105.3754345 103.8964883  51.4213374  97.7795689 113.3822347
  51.2238195  97.4710777 114.2665679  52.0313079  98.5057328 113.5120277
  43.6334406 104.0389659 103.3550340  42.7265862 103.7422772 103.4313054
  43.9110387 103.7419477 102.4884627  45.2496472  98.5826549 109.5094582
  44.4397200  98.2373634 109.8849828  45.9380889  98.2734093 110.0982193
  47.1787020  97.6604596 111.1318878  47.7318059  98.0800049 111.7908902
  47.4157107  96.7340344 111.1741834  42.4033191 100.8976595 103.4962320
  43.2652355 101.2231493 103.7558137  42.5883535 100.1108090 102.9835385
  50.5565828  99.7705121 110.6397543  49.9764497 100.4289925 110.2575595
  50.2901760  98.9482466 110.2284960  49.0069394  99.1710179 112.8418863
  49.5069172  99.2826713 112.0333182  49.6505002  98.8671232 113.4819671
  49.3390706 101.9305211 109.6953891  48.4516561 102.2154862 109.4774086
  49.7544695 101.7698975 108.8481168  52.6905242 101.9551732 113.4108230
  53.4665632 102.4448185 113.6832847  51.9653376 102.3809787 113.8680100
  55.1277800 102.6679352 114.4682171  55.7222291 102.4275088 113.7575479
  55.2004384 101.9486482 115.0955707  48.4833919 111.6949886 103.7901911
  49.1869769 111.8999889 104.4059567  47.7596568 112.2626648 104.0550994
  49.3131729 107.4459747 109.9104181  49.2566931 107.9028299 109.0711814
  49.8660072 106.6850432 109.7327024  53.1236535 103.2349479 110.7354301
  52.8673469 102.8346115 111.5662508  52.4989403 103.9493273 110.6104440
  50.3920616 112.1332415 105.8400371  51.2266220 111.7013614 105.6577846
  50.2304959 111.9614429 106.7677265  50.0466509 108.6364529 107.2056710
  49.9915312 108.4708800 106.2645154  49.4212564 109.3440561 107.3618900
  43.3562634  98.1372638 106.7842029  43.3441304  99.0814477 106.9410300
  44.2486056  97.9542783 106.4901490  47.1714754  94.7315414 111.0387965
  46.4047149  94.1773901 111.1844648  47.5825458  94.8037283 111.9002117
  51.8534472 118.5869963 106.3535324  51.0171784 118.9244649 106.6744598
  51.7139241 118.4518942 105.4162461  51.7272852 118.4317190 103.5533230
  50.8502318 118.3105991 103.1895477  52.2030605 117.6403268 103.3012119
  49.4291320 119.3716193 107.1114886  48.7360565 119.4460548 106.4554922
  49.1843072 118.6076536 107.6336403  54.4728161 119.3681577 103.3550340
  53.5659616 119.0714690 103.4313054  54.7504142 119.0711395 102.4884627
  53.2426946 116.2268512 103.4962320  54.1046110 116.5523411 103.7558137
  53.4277290 115.4400008 102.9835385  54.1956389 113.4664555 106.7842029
  54.1835058 114.4106395 106.9410300  55.0879810 113.2834701 106.4901490
   3.6498065  32.7826087  92.6209793   2.9759764  33.0857784  93.2294750
   4.0363887  33.5855167  92.2715250   5.7405535  24.5734300  91.1557233
   5.1234706  23.8481128  91.0590285   5.2722023  25.3343660  90.8124307
   7.6154806  30.3611570  93.8949616   8.3105710  30.9818263  94.1136930
   7.9577956  29.5106922  94.1701994   1.7069674  30.4673322  92.8024709
   1.1343641  31.0863509  92.3495181   2.2802468  31.0172684  93.3364631
   4.9266934  30.7510472  93.9333292   5.8597607  30.6856034  94.1366167
   4.8390147  31.5866739  93.4747824   7.5554951  30.0676343  90.8937239
   7.4768582  29.7336206  91.7872997   8.3764617  30.5598110  90.8928712
   5.1258902  27.3844338  90.5147218   5.8294752  27.5894340  91.1304873
   4.4021551  27.9521100  90.7796301   7.0345600  27.8226867  92.5645678
   7.8691204  27.3908066  92.3823152   6.8729943  27.6508881  93.4922572
  15.6629875  38.3396518 102.6600854  16.3008285  38.2203266 101.9564194
  15.5450718  39.2877362 102.7188807  12.4719581  38.2923946 102.5962379
  12.1338093  38.1765011 101.7082914  13.3409349  37.8915111 102.5763385
   8.3306397  40.1459423  98.5859270   7.7671262  40.0549360  97.8175558
   8.2158792  39.3259327  99.0661763  13.9105956  43.8130390  93.8973735
  13.2593935  44.3984471  93.5107749  14.7050318  44.3436585  93.9568772
   7.8361583  40.9019528  94.2960869   8.6092459  40.3548515  94.1573745
   8.1886982  41.7663777  94.5075331  10.1727860  37.0612194  91.9279319
  10.4253381  36.5393715  91.1662782   9.2352420  36.8978339  92.0306003
  15.2171143  36.0647972  99.7354062  16.0034233  35.6467395  99.3844479
  15.4809848  36.9694064  99.9035711  15.3881221  41.5020822  94.4342719
  14.7527054  41.5755449  95.1463624  15.0578627  42.0914421  93.7561798
  20.6179570  36.0023205 100.6387041  21.3504742  35.4322422 100.8724870
  19.8618926  35.6144806 101.0793547   9.8924149  38.9640300  94.1303694
   9.7760407  38.2885203  94.7984778  10.0026409  38.4772674  93.3135847
  12.2355690  38.4250447  97.8350383  11.8713897  37.8981068  98.5463305
  13.0922806  38.0348916  97.6616869  11.8761177  33.4540346  92.8311732
  12.0435579  34.3220583  93.1982203  11.6858346  33.6167628  91.9073021
  14.6336510  41.9157325 104.4977562  14.3337233  42.8182364 104.3893369
  14.2887570  41.6489509 105.3498715  18.0333654  34.4339866 102.1775000
  17.1250531  34.3655274 101.8833761  17.9821250  34.9111811 103.0056825
  11.8550398  35.9098004  93.8158399  11.7350023  36.3555055  94.6543879
  11.1602986  36.2583322  93.2571937   9.6157290  48.6801646  97.4648530
   9.5381320  49.6309471  97.5437011   9.0118934  48.3347518  98.1223456
  17.5535464  36.3819477  94.6438733  18.4653320  36.6146864  94.4686430
  17.0445111  36.9656521  94.0813811  16.1605046  41.3645296 102.0352314
  15.5313909  41.5291010 101.3328382  15.7730709  41.7786905 102.8063278
  20.0394278  42.2999733  99.3896678  19.3545317  42.6798635  98.8393711
  20.1238128  42.9095060 100.1228626  11.7133008  41.1019704  99.3002399
  12.1771354  41.3807407  98.5107022  11.4489806  40.2003148  99.1175490
  10.6501894  37.2242856  96.1091964  11.3525938  37.6763900  96.5765891
  10.3182523  36.5826675  96.7371858  18.4091038  42.8231648 104.1614379
  19.2308482  42.4211835 103.8797060  18.4053441  42.7199882 105.1130495
  26.4997031  39.1670396 100.5099350  25.7460739  38.5977794 100.3543355
  26.6344572  39.1333061 101.4569985  11.8895659  44.0383799  96.1854070
  11.7541334  44.8835334  96.6138917  12.4305472  44.2403076  95.4220003
   5.3425056  41.5559237  96.7581995   5.8549577  42.3502487  96.9087559
   5.9947769  40.8585527  96.6915596   7.1519941  44.6724993  98.8404748
   7.3286569  45.5942958  98.6525732   7.9476775  44.3583412  99.2699128
   8.2751257  46.1903167 104.8415090   8.8258682  46.0620230 104.0692084
   7.4362732  46.4898056 104.4909983   3.3073973  39.8847891  97.5341565
   4.1449195  40.2944899  97.3175273   3.4852241  38.9447333  97.5041759
  15.2038405  37.5522972  93.2225398  14.6885029  38.3227576  93.4613786
  14.9315714  36.8788108  93.8458460  12.7885516  32.3972672  98.2810637
  11.9327113  32.0079523  98.1016275  13.2012468  32.4764633  97.4210422
  20.1772679  40.3055326  95.1578572  19.4002122  39.9666486  94.7133734
  20.8564160  40.3107950  94.4833537  14.9924708  35.4250064  95.0485179
  14.6874844  35.7396213  95.8995323  15.9455151  35.5031484  95.0912512
  13.4371140  41.5840287  96.6978133  12.9092502  40.8493047  96.3851371
  12.9358643  42.3614963  96.4518102  18.4163986  39.7789308 101.8145180
  17.7587661  40.4688569 101.9025308  19.2204386  40.1685740 102.1579166
  17.2269445  38.1333680  99.8649121  17.7401327  38.7663672 100.3670831
  17.8770669  37.5334876  99.4992481   8.4959455  34.2764414  93.0780630
   7.6596767  34.6139101  93.3989905   8.3564225  34.1413394  92.1407767
  11.5823741  39.4020497  89.7013106  10.6750802  39.1709751  89.9004255
  12.0794772  38.6058117  89.8887088  14.4891819  48.1118005  92.6209793
  13.8153518  48.4149701  93.2294750  14.8757641  48.9147085  92.2715250
  14.4885324  37.0074552  97.2410142  15.2357143  37.5195949  96.9317264
  14.7576913  36.6858604  98.1014536  12.7611974  39.5033092  94.2237097
  11.8523193  39.2192125  94.3209566  12.7907058  39.9232171  93.3640403
  17.9931241  43.1139682  97.9928264  17.5393568  42.2730592  98.0493455
  17.3625208  43.7501080  98.3303044  16.9364161  34.0431668  99.2228932
  16.1986918  33.5309054  99.5539174  17.1890934  33.6032049  98.4112208
  16.4364181  44.9516178  98.9278082  16.7287155  45.5121236  98.2090448
  16.9462801  45.2444739  99.6831241  11.3096868  37.1161713 100.3246892
  11.3645478  36.1635549 100.2489368  10.4988070  37.2721152 100.8088190
  12.4588062  41.0441836  91.5625175  12.0207492  40.3277695  91.1030812
  13.1998503  41.2717951  91.0010267   9.2489228  35.7338773  98.0837271
   8.4357093  36.0332943  98.4902463   9.7448222  35.3394461  98.8011753
  11.3997806  45.7296530 100.0171535  11.3573985  45.9557376  99.0880067
  12.3160505  45.4959904 100.1657337  20.5761177  39.3199033  97.6201494
  20.4379075  39.5100629  96.6922683  20.2197395  40.0818416  98.0769545
  20.6030556  41.3875560 102.6312765  21.0367063  41.2950849 103.4795819
  21.3162137  41.3633060 101.9932781   9.5163607  42.6059559  99.8133498
  10.3104205  42.1109879  99.6116073   8.8055299  42.0777422  99.4501204
  14.3358451  44.9877654 104.1645866  14.3895473  45.5568590 104.9323582
  13.4673232  45.1579539 103.7999903   5.8246370  36.7502640  95.8893251
   4.8943958  36.6887096  96.1063213   5.9203842  36.2278593  95.0929892
  21.4646106  41.4299261 105.1645651  21.6581996  42.3345071 105.4104926
  21.3646724  40.9706680 105.9984236  12.0934883  43.1788581 103.4931335
  11.9545968  42.8107365 104.3657273  11.3049479  43.6936220 103.3215293
  12.6883035  48.2797677  94.8356872  12.8634790  47.8085720  95.6502494
  12.0015823  48.9063443  95.0638133  13.6440098  42.5570183 100.8820173
  13.3089930  42.5170953 101.7777823  13.1444043  41.8914899 100.4090583
  16.5799289  39.9026218  91.1557233  15.9628460  39.1773046  91.0590285
  16.1115778  40.6635578  90.8124307   7.2544120  51.4287040 101.6096732
   7.4940718  52.0605564 102.2875751   6.4113316  51.0775080 101.8962091
   8.3697835  34.1211642  90.2778537   7.4927302  34.0000443  89.9140784
   8.8455588  33.3297720  90.0257426  11.7671982  47.2366162 104.0138236
  11.6942153  48.0421134 104.5257541  11.3249375  47.4358128 103.1886257
  11.5561761  46.4737932  97.5241057  10.7729283  47.0159612  97.6179282
  12.2554506  46.9911912  97.9235299  14.8658411  32.2832562 100.1675263
  15.3627111  31.5302524  99.8476333  14.0945393  32.3196878  99.6018472
  22.7188169  37.9872927 101.8093554  22.7078045  38.8697643 101.4387487
  21.8505548  37.6344478 101.6148091  14.2270665  47.1352996 106.1696395
  14.9398637  47.7700461 106.0972296  13.7360694  47.2316862 105.3536396
  15.9488192  41.0404249  97.7413686  15.0144471  41.1605711  97.5718391
  16.1264861  40.1376716  97.4773696  19.3360743  36.8821568  98.2763720
  19.8021196  37.7149560  98.2024023  19.7868244  36.4166550  98.9808979
  17.4036975  43.2265389  95.2749872  17.6796818  43.1121984  96.1843747
  16.5341473  42.8282874  95.2362046  14.0391039  47.4751740  98.9182686
  14.2213433  46.6573396  99.3810438  14.8624025  47.6919433  98.4807576
  14.3733204  46.4019925  96.1797735  14.9020971  45.8912380  95.5667897
  14.6361424  46.0862456  97.0443268   7.7288952  47.4535042  98.9395510
   7.0599327  47.9381170  98.4559551   7.5901822  47.7004263  99.8538889
  11.8694221  49.4878786 105.5378169  12.4212529  49.6510407 106.3027254
  12.2100414  50.0783223 104.8658194   3.0976529  35.7153497  95.7191443
   3.3929970  34.8064176  95.6658496   2.1964565  35.6941237  95.3972445
  15.0062608  47.4360761 102.5241851  14.8813747  46.6350501 102.0152797
  15.6641699  47.9306955 102.0355821  17.0697516  45.2369781 104.1521401
  16.1227852  45.1175132 104.0799728  17.4180289  44.3492279 104.2347663
   4.8264371  33.3967595  95.8430768   4.4977077  32.5164974  95.6605874
   5.1803741  33.3415263  96.7307157  14.0743950  45.0322497 100.3525753
  13.9268912  44.1039205 100.5333323  14.8997443  45.0542588  99.8682829
   7.9406194  33.6840565  96.2106245   8.2802266  34.2126486  95.4884854
   8.3878314  34.0220971  96.9864812  17.6778071  45.8551056 101.4390626
  18.6024619  45.6493918 101.3015077  17.5093375  45.6067457 102.3479968
   9.9274341  32.1815186  94.4099538  10.6482704  32.5596439  93.9063255
   9.3039645  32.9004063  94.5134516  14.0705464  32.8860335  95.3457871
  14.2869078  33.7684973  95.0446699  13.5899531  32.4946549  94.6163513
  17.4673388  46.3736724  96.7952718  17.6410265  45.8083146  96.0426570
  17.9602279  47.1737619  96.6132207  10.0737964  31.7162977  97.2397075
  10.1953875  30.7879623  97.4387962   9.7840006  31.7301663  96.3275390
  23.3212779  39.1373147  98.4143017  23.7643925  38.3880472  98.0162141
  22.4439289  39.1283283  98.0316749  18.4548560  45.6903488  93.8949616
  19.1499465  46.3110181  94.1136930  18.7971710  44.8398839  94.1701994
  20.3539983  43.1403194  95.4236947  20.8791307  43.4790466  94.6986267
  20.2662336  42.2050209  95.2400081  12.0380644  49.2075177  99.7832200
  11.5985634  48.7151556 100.4765056  12.7888761  48.6648145  99.5424275
   4.5172983  45.3986718  99.7856828   5.3431003  45.0990490  99.4055471
   4.1667035  44.6294340 100.2346617   9.4854516  44.7513186 101.8554501
   8.8634525  44.0883891 101.5556729  10.1559383  44.7774318 101.1728149
   2.7181588  43.3173044 100.7445761   1.8813496  42.8895219 100.5629763
   2.6905233  43.5105488 101.6816553   9.0468023  43.3017109  95.3312962
   9.1956143  43.9852574  94.6779635   9.8534466  43.2822199  95.8462418
  21.6649961  43.0425505 108.2862895  21.3734769  43.4055486 109.1226356
  21.0522092  42.3292513 108.1076227  22.8645643  40.6078385 100.8065465
  23.6992535  41.0468189 100.9703025  23.0004772  40.1317038  99.9873711
   6.8020656  39.3282287  96.3374031   6.5566698  38.4244617  96.5354241
   6.9716571  39.3299437  95.3953509   6.0716304  35.0610645  93.8360192
   5.3785548  35.1354999  93.1800228   5.8268055  34.2970988  94.3581709
  12.5463429  45.7965240  92.8024709  11.9737396  46.4155427  92.3495181
  13.1196222  46.3464601  93.3364631  15.7660688  46.0802390  93.9333292
  16.6991362  46.0147952  94.1366167  15.6783901  46.9158657  93.4747824
  18.3948705  45.3968260  90.8937239  18.3162337  45.0628124  91.7872997
  19.2158372  45.8890028  90.8928712  21.0926896  38.2630000 104.1013558
  21.0603216  37.3246000 104.2873242  21.7027520  38.3414036 103.3679383
  12.9310227  37.1326052  90.1440762  13.8769332  37.0032261  90.2129180
  12.5524472  36.3940714  90.6210190  26.9103446  39.3246006 103.2419595
  27.6406835  39.0631294 103.8027298  26.3010392  38.5874728 103.2821663
  24.9918743  37.4653869 103.8394046  24.2651907  37.3309834 103.2310537
  24.5766030  37.7730698 104.6450764  11.1153144  35.0576029  90.0795647
  10.2084600  34.7609142  90.1558361  11.3929125  34.7605847  89.2129933
  12.7315210  29.6012919  96.2339888  11.9215938  29.2560004  96.6095135
  13.4199627  29.2920462  96.8227500   9.8851929  31.9162964  90.2207626
  10.7471093  32.2417862  90.4803444  10.0702273  31.1294460  89.7080692
  18.0384565  30.7891491  97.3642849  17.4583234  31.4476295  96.9820902
  17.7720498  29.9668835  96.9530267  16.8209443  32.9491581  96.4199198
  15.9335298  33.2341232  96.2019392  17.2363432  32.7885344  95.5726474
  20.1723979  32.9738102 100.1353537  20.9484370  33.4634554 100.4078154
  19.4472114  33.3996156 100.5925406  22.6096538  33.6865721 101.1927477
  23.2041029  33.4461457 100.4820786  22.6823122  32.9672852 101.8201014
   4.8293694  47.5299332 101.5070642   4.6948162  46.7699733 100.9408640
   4.4125756  48.2540232 101.0399431  15.9652657  42.7136256  90.5147218
  16.6688507  42.9186258  91.1304873  15.2415306  43.2813018  90.7796301
  16.7950467  38.4646117  96.6349488  16.7385668  38.9214668  95.7957120
  17.3478810  37.7036801  96.4572331  20.6055273  34.2535849  97.4599607
  20.3492207  33.8532484  98.2907815  19.9808141  34.9679643  97.3349746
  24.9167611  36.9931922  99.9670899  24.3567169  37.0625111 100.7402461
  24.3111114  36.8172907  99.2470395   7.9862820  48.4268649 101.7189085
   7.8695204  49.3714082 101.6167775   7.1655266  48.1242211 102.1074884
  17.8739354  43.1518785  92.5645678  18.7084958  42.7199983  92.3823152
  17.7123697  42.9800799  93.4922572  17.5285246  39.6550898  93.9302017
  17.4734050  39.4895170  92.9890461  16.9031302  40.3626931  94.0864207
  10.8381372  29.1559007  93.5087335  10.8260042  30.1000847  93.6655606
  11.7304794  28.9729153  93.2146797   9.0117334  49.0796911 104.9345013
   9.9144581  49.1120521 105.2511508   8.7854704  48.1497362 104.9491349
  10.7670936  47.8327898 101.5955092   9.8166567  47.8329759 101.4819464
  11.0703422  47.0860632 101.0791127  26.5023629  53.6688436 102.6600854
  27.1402039  53.5495183 101.9564194  26.3844472  54.6169280 102.7188807
  23.3113336  53.6215864 102.5962379  22.9731847  53.5056929 101.7082914
  24.1803104  53.2207029 102.5763385  19.1700151  55.4751340  98.5859270
  18.6065016  55.3841277  97.8175558  19.0552546  54.6551245  99.0661763
  23.7933119  54.7750716 108.5548585  23.7821759  54.3803514 107.6829088
  23.9553758  54.0416788 109.1482356  16.7164583  56.9702532 101.4243490
  17.5085875  56.6293357 101.0089790  16.9561233  57.0797507 102.3445644
  24.7499710  59.1422308  93.8973735  24.0987690  59.7276389  93.5107749
  25.5444073  59.6728503  93.9568772  18.6755337  56.2311445  94.2960869
  19.4486213  55.6840432  94.1573745  19.0280736  57.0955695  94.5075331
  20.5140380  57.5587828 107.5027769  20.2230246  58.4633458 107.3874435
  21.1497364  57.6004355 108.2171838  21.4396587  54.9364676 104.0929128
  22.0360159  54.7120698 103.3786091  21.4971558  54.1949422 104.6954576
  21.0121615  52.3904111  91.9279319  21.2647136  51.8685633  91.1662782
  20.0746174  52.2270257  92.0306003  26.0564898  51.3939890  99.7354062
  26.8427987  50.9759313  99.3844479  26.3203602  52.2985982  99.9035711
  31.4573325  51.3315123 100.6387041  32.1898497  50.7614340 100.8724870
  30.7012681  50.9436723 101.0793547  20.7317904  54.2932217  94.1303694
  20.6154162  53.6177121  94.7984778  20.8420164  53.8064591  93.3135847
  23.0749445  53.7542364  97.8350383  22.7107652  53.2272985  98.5463305
  23.9316561  53.3640834  97.6616869  28.9798745  45.0436697 105.0981650
  28.6482070  45.9132108 104.8742865  28.3844359  44.7272981 105.7775680
  22.7154932  48.7832264  92.8311732  22.8829334  49.6512501  93.1982203
  22.5252101  48.9459546  91.9073021  25.4730265  57.2449243 104.4977562
  25.1730988  58.1474282 104.3893369  25.1281324  56.9781426 105.3498715
  18.9242746  53.6963040 100.5314267  17.9993243  53.5639254 100.7391958
  19.1727159  54.4757259 101.0284209  28.8727409  49.7631783 102.1775000
  27.9644286  49.6947192 101.8833761  28.8215004  50.2403728 103.0056825
  22.6944152  51.2389922  93.8158399  22.5743778  51.6846972  94.6543879
  21.9996741  51.5875239  93.2571937  16.2851557  53.3396313 101.3658056
  16.4143938  53.5930792 102.2797467  15.6049009  53.9324021 101.0462711
  20.4551045  64.0093563  97.4648530  20.3775074  64.9601389  97.5437011
  19.8512688  63.6639436  98.1223456  22.9468274  51.1821429 110.1209897
  22.1701608  51.7415349 110.1112761  23.5858837  51.6678212 110.6424767
  30.7389055  47.9648222 103.9552874  30.0963435  48.2580755 103.3092668
  30.2343984  47.8501142 104.7606070  28.3929219  51.7111395  94.6438733
  29.3047075  51.9438782  94.4686430  27.8838866  52.2948439  94.0813811
  21.2014647  53.9906882 109.6827864  21.9429331  54.5291926 109.4062687
  20.4951632  54.6173171 109.8399416  26.6769986  56.1336023 108.2800025
  27.0853342  55.6918433 107.5354658  25.9547248  55.5588650 108.5334218
  23.0301056  51.0708629 105.6533582  23.8762252  51.4948043 105.7968231
  22.9699694  50.4142254 106.3472145  26.9998801  56.6937213 102.0352314
  26.3707663  56.8582927 101.3328382  26.6124463  57.1078823 102.8063278
  26.1800502  48.7312998 107.3114756  25.9361434  49.4855058 106.7749032
  26.4560432  49.1098345 108.1462003  28.1338964  55.2751610 105.9892022
  28.3455860  55.9183370 105.3126403  28.0868713  54.4413927 105.5213952
  25.7365193  47.8869431 102.8928594  24.8749672  48.1850684 103.1845331
  25.7627628  48.1039830 101.9609626  22.5526763  56.4311621  99.3002399
  23.0165108  56.7099324  98.5107022  22.2883561  55.5295066  99.1175490
  19.4450844  55.9783103 102.2382163  20.0152201  56.4070371 101.5999647
  20.0358956  55.6965688 102.9366348  21.4895649  52.5534774  96.1091964
  22.1919692  53.0055817  96.5765891  21.1576277  51.9118593  96.7371858
  19.9376010  51.1446530 110.4843174  19.3074671  51.8262811 110.7178571
  19.8312098  51.0329612 109.5396312  15.2320983  50.8118326 101.4109098
  14.4420037  51.0675855 100.9349209  15.7232230  51.6266664 101.5161139
  29.2484792  58.1523566 104.1614379  30.0702236  57.7503753 103.8797060
  29.2447195  58.0491800 105.1130495  17.1835728  51.1762906  98.3692575
  16.3866892  51.2881600  98.8876070  16.9561320  51.5149558  97.5033465
  23.0141396  57.7007609 106.3175089  23.0785828  58.1628016 107.1533261
  22.3052320  57.0704974 106.4457399  13.5158686  51.0648817 103.8424089
  13.7666724  51.9495827 104.1081665  14.0518234  50.8853418 103.0699181
  22.7289414  59.3675716  96.1854070  22.5935088  60.2127252  96.6138917
  23.2699226  59.5694994  95.4220003  16.1818811  56.8851154  96.7581995
  16.6943331  57.6794405  96.9087559  16.8341524  56.1877445  96.6915596
  17.9913696  60.0016911  98.8404748  18.1680324  60.9234875  98.6525732
  18.7870529  59.6875330  99.2699128  22.1324714  46.8625175 110.4388681
  22.8734428  47.4632328 110.3593144  22.3642637  46.1202813 109.8806724
  17.2766052  52.0481543 108.7166911  17.1619567  51.1466800 109.0174010
  16.4210570  52.2945239 108.3651728  24.3557890  59.9899283 110.3154412
  23.9121744  59.2035661 109.9975316  25.0175103  60.1778433 109.6498303
  19.1145011  61.5195084 104.8415090  19.6652436  61.3912148 104.0692084
  18.2756487  61.8189973 104.4909983  26.4539128  60.2702083 108.3435813
  26.4357603  61.0910964 107.8516082  27.3759048  60.1456158 108.5685954
  22.9112182  57.7846212 109.1859321  23.4440519  57.0234500 108.9558629
  22.3826263  57.4919864 109.9283476  26.0781877  42.8906278 104.7152963
  25.7346146  43.7807920 104.6392074  26.4460840  42.7007936 103.8522548
  14.1467728  55.2139809  97.5341565  14.9842950  55.6236817  97.3175273
  14.3245995  54.2739251  97.5041759  26.0432160  52.8814889  93.2225398
  25.5278783  53.6519494  93.4613786  25.7709468  52.2080026  93.8458460
  23.6279271  47.7264590  98.2810637  22.7720867  47.3371441  98.1016275
  24.0406223  47.8056551  97.4210422  25.1578417  45.2610933 102.6802196
  24.6543213  45.2241069 101.8670002  25.4509024  46.1703676 102.7398853
  21.4021303  45.3449663 101.6868378  22.2674300  45.1492472 101.3274268
  21.4698812  45.1160015 102.6137735  25.8318463  50.7541981  95.0485179
  25.5268599  51.0688131  95.8995323  26.7848905  50.8323401  95.0912512
  24.2764895  56.9132205  96.6978133  23.7486256  56.1784964  96.3851371
  23.7752398  57.6906881  96.4518102  29.2557741  55.1081225 101.8145180
  28.5981415  55.7980487 101.9025308  30.0598140  55.4977657 102.1579166
  19.0083622  47.5751871  99.0584745  19.5827374  47.3527053  98.3257938
  19.5954605  47.6440566  99.8113346  28.0663200  53.4625598  99.8649121
  28.5795081  54.0955590 100.3670831  28.7164424  52.8626793  99.4992481
  19.3353210  49.6056332  93.0780630  18.4990522  49.9431019  93.3989905
  19.1957979  49.4705312  92.1407767  21.3106290  44.4493120  97.7859814
  20.6570702  44.1342137  97.1616429  21.2686764  43.8268860  98.5119637
  22.4217495  54.7312415  89.7013106  21.5144557  54.5001668  89.9004255
  22.9188527  53.9350034  89.8887088  25.3285574  63.4409922  92.6209793
  24.6547273  63.7441619  93.2294750  25.7151396  64.2439003  92.2715250
  24.5444031  50.9375054 102.1107462  23.6266592  51.1590001 101.9529150
  24.9604174  51.0121364 101.2519169  25.3279078  52.3366469  97.2410142
  26.0750897  52.8487866  96.9317264  25.5970668  52.0150522  98.1014536
  23.6005728  54.8325010  94.2237097  22.6916948  54.5484043  94.3209566
  23.6300812  55.2524088  93.3640403  27.7757915  49.3723585  99.2228932
  27.0380672  48.8600972  99.5539174  28.0284689  48.9323967  98.4112208
  27.2757935  60.2808096  98.9278082  27.5680909  60.8413153  98.2090448
  27.7856556  60.5736657  99.6831241  27.8769543  42.1499837  99.8170701
  28.1828420  41.2897201  99.5296616  28.6022148  42.7417458  99.6169695
  14.1693899  52.5530524  98.2052299  13.9718299  51.9599885  97.4803365
  13.6140563  52.2482734  98.9228238  22.1490622  52.4453631 100.3246892
  22.2039232  51.4927467 100.2489368  21.3381825  52.6013070 100.8088190
  23.2981816  56.3733754  91.5625175  22.8601246  55.6569613  91.1030812
  24.0392257  56.6009868  91.0010267  20.0882982  51.0630690  98.0837271
  19.2750848  51.3624861  98.4902463  20.5841977  50.6686379  98.8011753
  22.2391560  61.0588447 100.0171535  22.1967739  61.2849293  99.0880067
  23.1554259  60.8251822 100.1657337  25.6857194  51.5272515 106.9152165
  26.0406582  51.7543988 107.7746630  26.3329325  51.8590892 106.2929420
  19.5797057  48.6349046 103.6998506  20.2196436  48.4937805 103.0021469
  18.7474588  48.3483559 103.3237108  20.3557361  57.9351476  99.8133498
  21.1497960  57.4401796  99.6116073  19.6449053  57.4069339  99.4501204
  25.1752206  60.3169572 104.1645866  25.2289228  60.8860508 104.9323582
  24.3066987  60.4871457 103.7999903  16.6640125  52.0794558  95.8893251
  15.7337713  52.0179013  96.1063213  16.7597597  51.5570511  95.0929892
  16.5825674  48.6049371  98.4771493  16.8432491  49.5194704  98.3680653
  17.4042846  48.1373813  98.6268105  18.0550599  50.0187128 105.6470317
  18.7273652  49.8104490 104.9982966  17.2280385  49.8209214 105.2075549
  23.9576171  46.6449069 107.6635978  23.3104086  47.3439019 107.5700454
  24.7277186  47.0785213 108.0312226  27.3654969  56.9097921 110.7386531
  27.2140475  56.6808473 109.8216615  27.3559648  57.8668522 110.7517876
  24.1340305  54.4829834 105.7232798  25.0632365  54.6340993 105.5501765
  23.7131335  54.5713855 104.8681444  22.9328637  58.5080498 103.4931335
  22.7939723  58.1399283 104.3657273  22.1443233  59.0228138 103.3215293
  23.5276789  63.6089595  94.8356872  23.7028545  63.1377638  95.6502494
  22.8409577  64.2355361  95.0638133  24.4833852  57.8862101 100.8820173
  24.1483685  57.8462871 101.7777823  23.9837798  57.2206817 100.4090583
  18.4578096  53.2929731 106.4072754  18.3197894  52.5609970 107.0084293
  19.3683020  53.2038631 106.1256942  27.4193044  55.2318135  91.1557233
  26.8022214  54.5064963  91.0590285  26.9509532  55.9927496  90.8124307
  21.0860397  53.0049690 105.8956434  21.7960015  52.3642882 105.8543052
  21.0429705  53.2562585 106.8182615  29.0747176  59.9417044 108.8163013
  29.0159722  59.2576264 108.1493596  29.4766694  60.6836034 108.3643639
  19.7989331  49.9914908 107.7152073  19.2626688  49.5405647 108.3673670
  19.2106039  50.1260817 106.9722538  18.0937874  66.7578957 101.6096732
  18.3334473  67.3897482 102.2875751  17.2507071  66.4066997 101.8962091
  19.2091590  49.4503560  90.2778537  18.3321056  49.3292360  89.9140784
  19.6849343  48.6589638  90.0257426  29.0764583  57.9056628 107.0476993
  28.1891362  57.5682549 107.1703392  29.6463134  57.1739659 107.2845758
  10.7293730  54.2380719 100.3720044  11.4164770  53.9242449  99.7841059
  10.5741859  55.1422084 100.0987296  15.5328452  49.1270916 104.8005068
  15.4486641  48.5196585 104.0655478  14.7111158  49.6179934 104.8014564
  22.6065736  62.5658080 104.0138236  22.5335908  63.3713051 104.5257541
  22.1643129  62.7650046 103.1886257  22.3955516  61.8029850  97.5241057
  21.6123038  62.3451530  97.6179282  23.0948261  62.3203830  97.9235299
  25.7052166  47.6124479 100.1675263  26.2020865  46.8594442  99.8476333
  24.9339147  47.6488796  99.6018472  25.0664420  62.4644914 106.1696395
  25.7792392  63.0992379 106.0972296  24.5754448  62.5608780 105.3536396
  26.7881947  56.3696167  97.7413686  25.8538225  56.4897629  97.5718391
  26.9658615  55.4668633  97.4773696  22.2887135  49.7541862  99.8946947
  21.9184922  49.2012903 100.5827853  22.7846227  49.1499996  99.3421948
  30.1754498  52.2113486  98.2763720  30.6414950  53.0441477  98.2024023
  30.6261998  51.7458467  98.9808979  20.1176333  60.2139357 106.9901965
  20.8185793  60.8475840 107.1431360  19.6471448  60.5554089 106.2297605
  28.1471161  44.5794073 102.3154622  27.2334240  44.8098300 102.4836829
  28.5764262  44.6632517 103.1668654  27.9177619  52.7683965 104.8154516
  27.2649069  53.0159872 104.1606969  28.2957999  51.9548103 104.4816993
  24.8784793  62.8043658  98.9182686  25.0607188  61.9865314  99.3810438
  25.7017779  63.0211350  98.4807576  25.2126959  61.7311843  96.1797735
  25.7414725  61.2204298  95.5667897  25.4755178  61.4154373  97.0443268
  23.9665192  53.5103776 111.3020553  23.2905829  53.4097905 111.9722928
  24.7892826  53.3542990 111.7656550  15.7144051  59.7475712 103.9233068
  16.2997488  59.0019400 104.0560972  15.5168890  60.0579669 104.8069732
  18.5682707  62.7826960  98.9395510  17.8993082  63.2673087  98.4559551
  18.4295576  63.0296180  99.8538889  10.3061706  52.3181313 102.6437511
  10.3445806  51.7844903 103.4374629   9.8001999  51.7916518 102.0248488
  22.7087975  64.8170703 105.5378169  23.2606283  64.9802325 106.3027254
  23.0494169  65.4075141 104.8658194  17.6852468  47.1645853 106.1400054
  17.7493795  48.0260684 105.7277451  17.6219589  46.5519855 105.4072412
  17.1604741  49.2368986 109.7873088  17.7876780  48.8546063 110.4010612
  16.3032660  49.0183188 110.1528780  27.5598849  59.6431961 111.3926823
  28.1038753  60.2561919 110.8981778  26.9785694  60.2011539 111.9093836
  13.9370284  51.0445415  95.7191443  14.2323725  50.1356093  95.6658496
  13.0358319  51.0233154  95.3972445  25.8456362  62.7652679 102.5241851
  25.7207502  61.9642419 102.0152797  26.5035453  63.2598872 102.0355821
  17.4664531  49.1201411 101.7018991  16.7451116  49.7337379 101.5626465
  18.2557786  49.6559176 101.6235637  27.9091271  60.5661699 104.1521401
  26.9621606  60.4467050 104.0799728  28.2574044  59.6784197 104.2347663
  20.2690844  46.4555838 107.9759643  20.7925246  46.7018134 108.7385952
  20.0503177  47.2875873 107.5562780  15.6658125  48.7259512  95.8430768
  15.3370831  47.8456891  95.6605874  16.0197496  48.6707181  96.7307157
  24.9137704  60.3614415 100.3525753  24.7662666  59.4331123 100.5333323
  25.7391198  60.3834506  99.8682829  18.7799948  49.0132482  96.2106245
  19.1196021  49.5418403  95.4884854  19.2272069  49.3512888  96.9864812
  21.4743389  47.3969533 105.6609314  21.1340210  46.5977346 106.0629993
  20.7682395  47.6971244 105.0886147  22.1259861  44.4818845 104.1136637
  22.9485930  44.0079324 103.9915527  22.3697925  45.2609329 104.6135323
  20.7668095  47.5107104  94.4099538  21.4876458  47.8888357  93.9063255
  20.1433400  48.2295981  94.5134516  24.9099218  48.2152253  95.3457871
  25.1262833  49.0976891  95.0446699  24.4293286  47.8238466  94.6163513
  19.6498440  51.1737966 101.9228615  19.5043020  51.4878269 102.8152897
  19.1723643  51.7922866 101.3699514  21.5094823  48.1640514 101.9709505
  21.4956391  47.2681607 101.6341803  22.2267251  48.1711178 102.6047791
  23.3620953  48.5977854 104.0162632  23.1038731  49.5194925 104.0146963
  22.8305994  48.2008289 104.7063096  14.1244102  53.7143310 104.8616276
  13.5797570  54.4903118 104.9936551  15.0023452  54.0614115 104.7035398
  20.9131719  47.0454894  97.2397075  21.0347630  46.1171540  97.4387962
  20.6233761  47.0593580  96.3275390  23.7822909  44.7309805 100.3763795
  23.8044606  44.7949138  99.4215774  24.1990968  43.8914313 100.5704301
  14.9110124  52.8413207 107.7546433  14.1691860  52.9895842 108.3411064
  14.5902868  53.1021472 106.8913183  22.8553786  62.3829185 107.5526823
  23.1640913  62.1378332 108.4249523  23.6529268  62.5875823 107.0645693
  22.8774398  64.5367095  99.7832200  22.4379389  64.0443473 100.4765056
  23.6282515  63.9940062  99.5424275  15.3566737  60.7278635  99.7856828
  16.1824757  60.4282407  99.4055471  15.0060789  59.9586258 100.2346617
  20.3248271  60.0805104 101.8554501  19.7028280  59.4175809 101.5556729
  20.9953138  60.1066236 101.1728149  13.5575343  58.6464962 100.7445761
  12.7207251  58.2187136 100.5629763  13.5298988  58.8397405 101.6816553
  20.3972798  48.5586892 111.4487007  20.4460954  49.4349014 111.0664777
  20.9395312  48.0164285 110.8758651  30.8827644  59.1028015 110.7288145
  30.0923187  59.0852154 110.1892644  30.6460998  59.6416309 111.4837181
  31.0025519  55.9520481 108.0420873  31.0523524  55.7870489 108.9836396
  30.8939442  55.0847740 107.6518754  19.8861778  58.6309027  95.3312962
  20.0349898  59.3144491  94.6779635  20.6928221  58.6114117  95.8462418
  28.2929281  51.9351409 109.3580180  29.1939144  51.7957874 109.0664178
  28.3677256  52.1005864 110.2978357  22.6272087  49.3118264 108.2033366
  21.7575396  49.6051830 107.9315955  22.8631567  49.8958709 108.9240630
  32.5043716  58.3717423 108.2862895  32.2128524  58.7347403 109.1226356
  31.8915847  57.6584431 108.1076227  30.7530904  53.4950037 106.7542953
  31.2285026  53.6877684 105.9461804  29.8296469  53.5509223 106.5086336
  17.6414411  54.6574205  96.3374031  17.3960452  53.7536535  96.5354241
  17.8110325  54.6591355  95.3953509  25.3311120  45.5297881 105.7198787
  25.8493064  46.2658908 105.3945275  24.9766253  45.8361874 106.5545546
  16.9110058  50.3902562  93.8360192  16.2179303  50.4646917  93.1800228
  16.6661810  49.6262906  94.3581709  25.5823715  41.9498164 101.2399683
  25.8625468  41.2821353 101.8660110  26.3674321  42.1427259 100.7274347
  23.3857183  61.1257157  92.8024709  22.8131150  61.7447345  92.3495181
  23.9589977  61.6756519  93.3364631  29.4532573  50.3715798 104.9871258
  30.4049996  50.4713895 105.0083482  29.2836023  49.5794066 105.4969343
  27.4746952  47.4571381 105.1730659  26.8796884  47.7376393 104.4777148
  27.1896649  47.9465282 105.9447400  29.2342460  60.7260178  90.8937239
  29.1556091  60.3920041  91.7872997  30.0552126  61.2181946  90.8928712
  31.9320651  53.5921917 104.1013558  31.8996971  52.6537918 104.2873242
  32.5421274  53.6705954 103.3679383  23.7703982  52.4617970  90.1440762
  24.7163086  52.3324178  90.2129180  23.3918227  51.7232632  90.6210190
  32.0815139  50.3832961 104.1471841  31.5654188  49.5991417 103.9601770
  32.9655088  50.0551677 104.3118361  29.7425866  44.1273976 100.1067654
  29.5450687  43.8189064 100.9910986  30.3525572  44.8535615 100.2365584
  23.6542674  56.5135716 111.6041419  24.5745684  56.6914315 111.7981465
  23.6192257  55.5691762 111.4521118  21.9546899  50.3867947  90.0795647
  21.0478354  50.0901059  90.1558361  22.2322880  50.0897765  89.2129933
  12.8724839  51.7074310 100.5294694  12.5527623  50.8539618 100.2369068
  12.3258267  51.9222888 101.2852661  16.6504747  54.4236751 104.2464200
  16.8690756  55.3553859 104.2652234  17.0630520  54.0644725 105.0319004
  23.5708964  44.9304836  96.2339888  22.7609693  44.5851921  96.6095135
  24.2593381  44.6212380  96.8227500  25.4999513  44.0082883  97.8564185
  26.0530551  44.4278337  98.5154208  25.7369599  43.0818631  97.8987141
  20.7245683  47.2454882  90.2207626  21.5864847  47.5709780  90.4803444
  20.9096027  46.4586378  89.7080692  12.7413099  55.3277221 102.4987815
  12.0476571  54.9131174 101.9857770  13.4886090  55.3697758 101.9021234
  28.8778320  46.1183408  97.3642849  28.2976989  46.7768212  96.9820902
  28.6114252  45.2960753  96.9530267  27.3281886  45.5188466  99.5664170
  27.8281665  45.6305000  98.7578488  27.9717494  45.2149519 100.2064978
  21.3863882  53.4267096 112.4532011  20.9030964  54.2267456 112.6595900
  21.4724821  53.4375040 111.4999455  14.6549842  55.2595475 100.3753830
  14.6320530  55.3583163  99.4235713  14.9650478  56.1060626 100.6970996
  17.3137219  57.3171630 104.4900444  18.2680473  57.2855573 104.4230376
  17.1149743  56.8562254 105.3050670  17.9036602  55.8872746 107.0571242
  18.7229491  56.3816825 107.0806079  18.1773409  54.9704714 107.0288810
  27.6603198  48.2783499  96.4199198  26.7729053  48.5633149  96.2019392
  28.0757187  48.1177262  95.5726474  31.0117734  48.3030020 100.1353537
  31.7878124  48.7926472 100.4078154  30.2865868  48.7288074 100.5925406
  33.4490293  49.0157639 101.1927477  34.0434783  48.7753375 100.4820786
  33.5216876  48.2964769 101.8201014  15.6687448  62.8591250 101.5070642
  15.5341916  62.0991651 100.9408640  15.2519511  63.5832150 101.0399431
  26.8046411  58.0428173  90.5147218  27.5082261  58.2478176  91.1304873
  26.0809060  58.6104935  90.7796301  27.6344222  53.7938035  96.6349488
  27.5779423  54.2506586  95.7957120  28.1872564  53.0328719  96.4572331
  31.4449027  49.5827766  97.4599607  31.1885962  49.1824402  98.2907815
  30.8201896  50.2971560  97.3349746  18.8256574  63.7560567 101.7189085
  18.7088958  64.7005999 101.6167775  18.0049020  63.4534128 102.1074884
  13.1571516  50.2210880 107.7563439  13.8030379  49.7109834 108.2450664
  12.9488667  50.9579562 108.3306864  25.6824908  57.2891728 113.2555580
  26.5516068  57.4632380 112.8942215  25.2031660  58.1086144 113.1331309
  21.6775126  44.4850925  93.5087335  21.6653796  45.4292765  93.6655606
  22.5698548  44.3021070  93.2146797  19.8511088  64.4088829 104.9345013
  20.7538335  64.4412439 105.2511508  19.6248458  63.4789280 104.9491349
  21.6064690  63.1619815 101.5955092  20.6560321  63.1621677 101.4819464
  21.9097176  62.4152550 101.0791127  25.4927246  41.0793701  97.7633272
  24.7259642  40.5252188  97.9089954  25.9037951  41.1515570  98.6247424
  34.6326873  70.1042633 108.5548585  34.6215514  69.7095432 107.6829088
  34.7947513  69.3708706 109.1482356  27.5558338  72.2994450 101.4243490
  28.3479630  71.9585274 101.0089790  27.7954988  72.4089425 102.3445644
  31.3534134  72.8879745 107.5027769  31.0624000  73.7925376 107.3874435
  31.9891119  72.9296273 108.2171838  32.2790341  70.2656594 104.0929128
  32.8753913  70.0412616 103.3786091  32.3365313  69.5241339 104.6954576
  27.1245312  68.6688231 101.3658056  27.2537693  68.9222710 102.2797467
  26.4442763  69.2615939 101.0462711  31.2944799  79.3385481  97.4648530
  31.2168829  80.2893306  97.5437011  30.6906443  78.9931354  98.1223456
  33.7862029  66.5113347 110.1209897  33.0095363  67.0707267 110.1112761
  34.4252592  66.9970130 110.6424767  32.0408401  69.3198800 109.6827864
  32.7823086  69.8583844 109.4062687  31.3345387  69.9465089 109.8399416
  37.5163741  71.4627940 108.2800025  37.9247097  71.0210351 107.5354658
  36.7941002  70.8880568 108.5334218  33.8694811  66.4000547 105.6533582
  34.7156006  66.8239961 105.7968231  33.8093449  65.7434171 106.3472145
  38.9732719  70.6043528 105.9892022  39.1849614  71.2475288 105.3126403
  38.9262467  69.7705844 105.5213952  30.7769765  66.4738448 110.4843174
  30.1468425  67.1554729 110.7178571  30.6705853  66.3621530 109.5396312
  26.0714737  66.1410244 101.4109098  25.2813791  66.3967773 100.9349209
  26.5625985  66.9558582 101.5161139  28.0229483  66.5054823  98.3692575
  27.2260646  66.6173518  98.8876070  27.7955075  66.8441476  97.5033465
  33.8535150  73.0299527 106.3175089  33.9179583  73.4919934 107.1533261
  33.1446074  72.3996891 106.4457399  24.3552440  66.3940735 103.8424089
  24.6060479  67.2787744 104.1081665  24.8911989  66.2145336 103.0699181
  30.0550508  60.7759214 112.8468425  29.6617453  60.2225412 113.5216069
  30.8716648  61.0869792 113.2374942  27.0212565  72.2143072  96.7581995
  27.5337086  73.0086322  96.9087559  27.6735278  71.5169363  96.6915596
  28.8307450  75.3308828  98.8404748  29.0074078  76.2526793  98.6525732
  29.6264284  75.0167248  99.2699128  32.9718469  62.1917093 110.4388681
  33.7128182  62.7924246 110.3593144  33.2036391  61.4494731 109.8806724
  28.1159807  67.3773460 108.7166911  28.0013322  66.4758717 109.0174010
  27.2604324  67.6237157 108.3651728  35.1951644  75.3191201 110.3154412
  34.7515499  74.5327579 109.9975316  35.8568858  75.5070351 109.6498303
  29.9538766  76.8487002 104.8415090  30.5046191  76.7204066 104.0692084
  29.1150241  77.1481891 104.4909983  37.2932882  75.5994000 108.3435813
  37.2751358  76.4202882 107.8516082  38.2152802  75.4748076 108.5685954
  33.7505937  73.1138130 109.1859321  34.2834273  72.3526418 108.9558629
  33.2220018  72.8211782 109.9283476  24.9861482  70.5431726  97.5341565
  25.8236704  70.9528735  97.3175273  25.1639750  69.6031169  97.5041759
  30.1746964  64.9348250  93.0780630  29.3384276  65.2722936  93.3989905
  30.0351734  64.7997230  92.1407767  25.0087653  67.8822442  98.2052299
  24.8112053  67.2891802  97.4803365  24.4534317  67.5774652  98.9228238
  36.5250949  66.8564432 106.9152165  36.8800336  67.0835906 107.7746630
  37.1723080  67.1882809 106.2929420  30.4190812  63.9640963 103.6998506
  31.0590191  63.8229723 103.0021469  29.5868342  63.6775477 103.3237108
  27.5033879  67.4086476  95.8893251  26.5731467  67.3470931  96.1063213
  27.5991351  66.8862428  95.0929892  28.8944353  65.3479046 105.6470317
  29.5667407  65.1396408 104.9982966  28.0674140  65.1501132 105.2075549
  34.7969925  61.9740987 107.6635978  34.1497840  62.6730936 107.5700454
  35.5670941  62.4077130 108.0312226  38.2048723  72.2389839 110.7386531
  38.0534230  72.0100390 109.8216615  38.1953403  73.1960440 110.7517876
  34.9734060  69.8121751 105.7232798  35.9026120  69.9632911 105.5501765
  34.5525090  69.9005772 104.8681444  34.3670544  78.9381512  94.8356872
  34.5422299  78.4669556  95.6502494  33.6803332  79.5647279  95.0638133
  29.2971851  68.6221649 106.4072754  29.1591649  67.8901887 107.0084293
  30.2076774  68.5330549 106.1256942  31.9254151  68.3341608 105.8956434
  32.6353770  67.6934800 105.8543052  31.8823459  68.5854503 106.8182615
  39.9140930  75.2708961 108.8163013  39.8553476  74.5868181 108.1493596
  40.3160448  76.0127951 108.3643639  30.6383085  65.3206826 107.7152073
  30.1020442  64.8697564 108.3673670  30.0499794  65.4552735 106.9722538
  28.9331629  82.0870875 101.6096732  29.1728227  82.7189399 102.2875751
  28.0900825  81.7358915 101.8962091  30.0485344  64.7795477  90.2778537
  29.1714811  64.6584278  89.9140784  30.5243097  63.9881556  90.0257426
  21.5687484  69.5672637 100.3720044  22.2558524  69.2534367  99.7841059
  21.4135613  70.4714002 100.0987296  26.3722207  64.4562833 104.8005068
  26.2880395  63.8488503 104.0655478  25.5504913  64.9471852 104.8014564
  33.4459491  77.8949998 104.0138236  33.3729662  78.7004969 104.5257541
  33.0036884  78.0941963 103.1886257  35.9058174  77.7936832 106.1696395
  36.6186146  78.4284296 106.0972296  35.4148203  77.8900698 105.3536396
  30.9570088  75.5431275 106.9901965  31.6579547  76.1767758 107.1431360
  30.4865203  75.8846007 106.2297605  38.7571374  68.0975882 104.8154516
  38.1042824  68.3451790 104.1606969  39.1351754  67.2840021 104.4816993
  34.8058947  68.8395694 111.3020553  34.1299584  68.7389823 111.9722928
  35.6286581  68.6834907 111.7656550  26.5537806  75.0767630 103.9233068
  27.1391243  74.3311318 104.0560972  26.3562644  75.3871587 104.8069732
  29.4076461  78.1118877  98.9395510  28.7386836  78.5965005  98.4559551
  29.2689331  78.3588098  99.8538889  21.1455461  67.6473230 102.6437511
  21.1839560  67.1136821 103.4374629  20.6395753  67.1208436 102.0248488
  33.5481730  80.1462621 105.5378169  34.1000038  80.3094242 106.3027254
  33.8887923  80.7367059 104.8658194  28.5246223  62.4937771 106.1400054
  28.5887549  63.3552602 105.7277451  28.4613343  61.8811772 105.4072412
  27.9998495  64.5660903 109.7873088  28.6270534  64.1837981 110.4010612
  27.1426414  64.3475105 110.1528780  38.3992604  74.9723879 111.3926823
  38.9432508  75.5853837 110.8981778  37.8179449  75.5303457 111.9093836
  24.7764038  66.3737332  95.7191443  25.0717479  65.4648011  95.6658496
  23.8752074  66.3525072  95.3972445  28.3058285  64.4493329 101.7018991
  27.5844871  65.0629297 101.5626465  29.0951541  64.9851094 101.6235637
  31.1084599  61.7847756 107.9759643  31.6319000  62.0310052 108.7385952
  30.8896932  62.6167790 107.5562780  26.5051880  64.0551430  95.8430768
  26.1764586  63.1748809  95.6605874  26.8591250  63.9999099  96.7307157
  32.3137144  62.7261451 105.6609314  31.9733964  61.9269264 106.0629993
  31.6076150  63.0263161 105.0886147  32.9653615  59.8110763 104.1136637
  33.7879685  59.3371241 103.9915527  33.2091679  60.5901247 104.6135323
  24.9637856  69.0435228 104.8616276  24.4191324  69.8195036 104.9936551
  25.8417206  69.3906033 104.7035398  25.7503878  68.1705124 107.7546433
  25.0085614  68.3187760 108.3411064  25.4296623  68.4313390 106.8913183
  33.6947541  77.7121103 107.5526823  34.0034667  77.4670249 108.4249523
  34.4923023  77.9167741 107.0645693  33.7168153  79.8659012  99.7832200
  33.2773143  79.3735391 100.4765056  34.4676270  79.3231980  99.5424275
  26.1960492  76.0570553  99.7856828  27.0218512  75.7574325  99.4055471
  25.8454544  75.2878176 100.2346617  31.1642025  75.4097021 101.8554501
  30.5422034  74.7467726 101.5556729  31.8346892  75.4358153 101.1728149
  24.3969097  73.9756880 100.7445761  23.5601005  73.5479054 100.5629763
  24.3692742  74.1689323 101.6816553  31.2366553  63.8878809 111.4487007
  31.2854708  64.7640932 111.0664777  31.7789067  63.3456202 110.8758651
  41.7221398  74.4319933 110.7288145  40.9316942  74.4144071 110.1892644
  41.4854753  74.9708226 111.4837181  41.8419273  71.2812399 108.0420873
  41.8917278  71.1162406 108.9836396  41.7333197  70.4139658 107.6518754
  39.1323036  67.2643327 109.3580180  40.0332898  67.1249792 109.0664178
  39.2071010  67.4297782 110.2978357  33.4665841  64.6410182 108.2033366
  32.5969150  64.9343748 107.9315955  33.7025321  65.2250627 108.9240630
  43.3437470  73.7009340 108.2862895  43.0522278  74.0639321 109.1226356
  42.7309601  72.9876349 108.1076227  41.5924658  68.8241955 106.7542953
  42.0678780  69.0169601 105.9461804  40.6690224  68.8801141 106.5086336
  28.4808165  69.9866122  96.3374031  28.2354207  69.0828452  96.5354241
  28.6504080  69.9883273  95.3953509  27.7503813  65.7194480  93.8360192
  27.0573057  65.7938835  93.1800228  27.5055564  64.9554823  94.3581709
  34.4936429  71.8427634 111.6041419  35.4139438  72.0206233 111.7981465
  34.4586012  70.8983679 111.4521118  23.7118594  67.0366228 100.5294694
  23.3921378  66.1831536 100.2369068  23.1652022  67.2514806 101.2852661
  27.4898501  69.7528669 104.2464200  27.7084511  70.6845776 104.2652234
  27.9024275  69.3936643 105.0319004  32.3626366  65.3261874 113.6366949
  32.2623093  66.2756231 113.5679040  32.1447908  64.9980113 112.7643019
  31.5639438  62.5746799  90.2207626  32.4258602  62.9001698  90.4803444
  31.7489782  61.7878295  89.7080692  23.5806854  70.6569139 102.4987815
  22.8870325  70.2423092 101.9857770  24.3279845  70.6989676 101.9021234
  32.2257637  68.7559013 112.4532011  31.7424718  69.5559373 112.6595900
  32.3118576  68.7666958 111.4999455  25.4943596  70.5887393 100.3753830
  25.4714284  70.6875080  99.4235713  25.8044233  71.4352544 100.6970996
  28.1530974  72.6463548 104.4900444  29.1074228  72.6147490 104.4230376
  27.9543498  72.1854172 105.3050670  28.7430356  71.2164664 107.0571242
  29.5623245  71.7108743 107.0806079  29.0167164  70.2996632 107.0288810
  26.5081203  78.1883167 101.5070642  26.3735671  77.4283568 100.9408640
  26.0913265  78.9124067 101.0399431  29.6650329  79.0852484 101.7189085
  29.5482713  80.0297917 101.6167775  28.8442775  78.7826046 102.1074884
  23.9965270  65.5502798 107.7563439  24.6424134  65.0401752 108.2450664
  23.7882421  66.2871479 108.3306864  36.5218663  72.6183645 113.2555580
  37.3909822  72.7924298 112.8942215  36.0425414  73.4378062 113.1331309
  30.6904843  79.7380746 104.9345013  31.5932089  79.7704357 105.2511508
  30.4642213  78.8081197 104.9491349  32.4458445  78.4911733 101.5955092
  31.4954076  78.4913594 101.4819464  32.7490931  77.7444467 101.0791127
  28.3362761  62.6970415 111.8538453  29.1994223  62.3407220 112.0641778
  27.7628172  62.3584310 112.5413858  45.4720628  85.4334551 108.5548585
  45.4609268  85.0387349 107.6829088  45.6341267  84.7000624 109.1482356
  38.3952092  87.6286367 101.4243490  39.1873384  87.2877192 101.0089790
  38.6348742  87.7381342 102.3445644  42.1927889  88.2171663 107.5027769
  41.9017755  89.1217294 107.3874435  42.8284873  88.2588191 108.2171838
  43.1184096  85.5948511 104.0929128  43.7147668  85.3704534 103.3786091
  43.1759067  84.8533257 104.6954576  50.6586254  75.7020532 105.0981650
  50.3269579  76.5715943 104.8742865  50.0631868  75.3856816 105.7775680
  47.1517774  87.9033078 104.4977562  46.8518497  88.8058117 104.3893369
  46.8068833  87.6365262 105.3498715  42.1338554  94.6677399  97.4648530
  42.0562583  95.6185224  97.5437011  41.5300197  94.3223271  98.1223456
  44.6255783  81.8405264 110.1209897  43.8489117  82.3999184 110.1112761
  45.2646346  82.3262047 110.6424767  42.8802156  84.6490718 109.6827864
  43.6216840  85.1875762 109.4062687  42.1739141  85.2757006 109.8399416
  48.3557495  86.7919858 108.2800025  48.7640851  86.3502269 107.5354658
  47.6334757  86.2172486 108.5334218  48.6786310  87.3521049 102.0352314
  48.0495172  87.5166763 101.3328382  48.2911972  87.7662658 102.8063278
  52.5575542  88.2875487  99.3896678  51.8726580  88.6674388  98.8393711
  52.6419391  88.8970813 100.1228626  47.8588011  79.3896833 107.3114756
  47.6148943  80.1438894 106.7749032  48.1347941  79.7682181 108.1462003
  41.6163519  81.8030366 110.4843174  40.9862180  82.4846647 110.7178571
  41.5099607  81.6913447 109.5396312  50.9272301  88.8107401 104.1614379
  51.7489745  88.4087588 103.8797060  50.9234704  88.7075635 105.1130495
  44.6928905  88.3591444 106.3175089  44.7573337  88.8211851 107.1533261
  43.9839829  87.7288809 106.4457399  35.1946195  81.7232652 103.8424089
  35.4454233  82.6079662 104.1081665  35.7305743  81.5437254 103.0699181
  59.0178294  85.1546149 100.5099350  58.2642003  84.5853548 100.3543355
  59.1525836  85.1208814 101.4569985  40.8944262  76.1051132 112.8468425
  40.5011208  75.5517330 113.5216069  41.7110402  76.4161710 113.2374942
  37.8606320  87.5434990  96.7581995  38.3730840  88.3378240  96.9087559
  38.5129033  86.8461280  96.6915596  39.6701205  90.6600746  98.8404748
  39.8467833  91.5818711  98.6525732  40.4658038  90.3459165  99.2699128
  43.8112223  77.5209011 110.4388681  44.5521936  78.1216164 110.3593144
  44.0430146  76.7786648 109.8806724  38.9553561  82.7065378 108.7166911
  38.8407076  81.8050635 109.0174010  38.0998079  82.9529075 108.3651728
  46.0345399  90.6483118 110.3154412  45.5909253  89.8619497 109.9975316
  46.6962612  90.8362269 109.6498303  40.7932520  92.1778920 104.8415090
  41.3439945  92.0495983 104.0692084  39.9543996  92.4773809 104.4909983
  48.1326637  90.9285918 108.3435813  48.1145112  91.7494799 107.8516082
  49.0546557  90.8039993 108.5685954  44.5899691  88.4430048 109.1859321
  45.1228028  87.6818336 108.9558629  44.0613772  88.1503699 109.9283476
  47.7569386  73.5490114 104.7152963  47.4133655  74.4391755 104.6392074
  48.1248349  73.3591771 103.8522548  35.8255237  85.8723644  97.5341565
  36.6630459  86.2820652  97.3175273  36.0033504  84.9323086  97.5041759
  48.9545444  90.9391931  98.9278082  49.2468418  91.4996989  98.2090448
  49.4644065  91.2320492  99.6831241  35.8481408  83.2114359  98.2052299
  35.6505808  82.6183720  97.4803365  35.2928072  82.9066570  98.9228238
  43.9179069  91.7172283 100.0171535  43.8755248  91.9433129  99.0880067
  44.8341768  91.4835657 100.1657337  53.1211820  87.3751313 102.6312765
  53.5548326  87.2826602 103.4795819  53.8343400  87.3508813 101.9932781
  46.8539715  90.9753407 104.1645866  46.9076737  91.5444343 104.9323582
  45.9854496  91.1455292 103.7999903  53.9827369  87.4175014 105.1645651
  54.1763259  88.3220824 105.4104926  53.8827987  86.9582433 105.9984236
  45.6363680  77.3032904 107.6635978  44.9891595  78.0022854 107.5700454
  46.4064695  77.7369048 108.0312226  49.0442478  87.5681756 110.7386531
  48.8927984  87.3392308 109.8216615  49.0347157  88.5252358 110.7517876
  45.8127814  85.1413669 105.7232798  46.7419874  85.2924829 105.5501765
  45.3918844  85.2297690 104.8681444  44.6116146  89.1664334 103.4931335
  44.4727232  88.7983118 104.3657273  43.8230742  89.6811973 103.3215293
  45.2064298  94.2673430  94.8356872  45.3816054  93.7961473  95.6502494
  44.5197086  94.8939196  95.0638133  40.1365605  83.9513566 106.4072754
  39.9985403  83.2193805 107.0084293  41.0470529  83.8622466 106.1256942
  50.7534684  90.6000879 108.8163013  50.6947231  89.9160099 108.1493596
  51.1554203  91.3419869 108.3643639  41.4776840  80.6498743 107.7152073
  40.9414197  80.1989482 108.3673670  40.8893548  80.7844652 106.9722538
  39.7725383  97.4162793 101.6096732  40.0121982  98.0481317 102.2875751
  38.9294580  97.0650833 101.8962091  50.7552092  88.5640463 107.0476993
  49.8678871  88.2266385 107.1703392  51.3250643  87.8323494 107.2845758
  32.4081239  84.8964555 100.3720044  33.0952279  84.5826285  99.7841059
  32.2529368  85.8005919 100.0987296  37.2115961  79.7854751 104.8005068
  37.1274150  79.1780421 104.0655478  36.3898667  80.2763769 104.8014564
  44.2853245  93.2241915 104.0138236  44.2123417  94.0296887 104.5257541
  43.8430638  93.4233881 103.1886257  44.0743025  92.4613685  97.5241057
  43.2910547  93.0035365  97.6179282  44.7735770  92.9787665  97.9235299
  46.7451929  93.1228749 106.1696395  47.4579901  93.7576214 106.0972296
  46.2541957  93.2192615 105.3536396  41.7963842  90.8723193 106.9901965
  42.4973302  91.5059676 107.1431360  41.3258957  91.2137924 106.2297605
  46.5572302  93.4627493  98.9182686  46.7394697  92.6449149  99.3810438
  47.3805288  93.6795186  98.4807576  46.8914468  92.3895678  96.1797735
  47.4202234  91.8788133  95.5667897  47.1542687  92.0738209  97.0443268
  45.6452701  84.1687611 111.3020553  44.9693338  84.0681741 111.9722928
  46.4680335  84.0126825 111.7656550  37.3931560  90.4059548 103.9233068
  37.9784997  89.6603236 104.0560972  37.1956399  90.7163504 104.8069732
  40.2470215  93.4410795  98.9395510  39.5780591  93.9256923  98.4559551
  40.1083085  93.6880016  99.8538889  31.9849215  82.9765148 102.6437511
  32.0233315  82.4428739 103.4374629  31.4789508  82.4500353 102.0248488
  44.3875484  95.4754539 105.5378169  44.9393792  95.6386160 106.3027254
  44.7281678  96.0658976 104.8658194  39.3639977  77.8229688 106.1400054
  39.4281304  78.6844519 105.7277451  39.3007098  77.2103690 105.4072412
  38.8392250  79.8952821 109.7873088  39.4664289  79.5129898 110.4010612
  37.9820169  79.6767023 110.1528780  49.2386358  90.3015796 111.3926823
  49.7826262  90.9145754 110.8981778  48.6573203  90.8595375 111.9093836
  47.5243871  93.4236514 102.5241851  47.3995011  92.6226254 102.0152797
  48.1822962  93.9182708 102.0355821  49.5878780  91.2245534 104.1521401
  48.6409115  91.1050885 104.0799728  49.9361553  90.3368032 104.2347663
  41.9478353  77.1139673 107.9759643  42.4712755  77.3601970 108.7385952
  41.7290686  77.9459708 107.5562780  46.5925213  91.0198251 100.3525753
  46.4450175  90.0914958 100.5333323  47.4178707  91.0418341  99.8682829
  50.1959335  91.8426809 101.4390626  51.1205882  91.6369671 101.3015077
  50.0274638  91.5943210 102.3479968  35.8031611  84.3727146 104.8616276
  35.2585079  85.1486954 104.9936551  36.6810961  84.7197950 104.7035398
  36.5897633  83.4997042 107.7546433  35.8479369  83.6479677 108.3411064
  36.2690377  83.7605308 106.8913183  44.5341295  93.0413020 107.5526823
  44.8428422  92.7962167 108.4249523  45.3316777  93.2459659 107.0645693
  44.5561907  95.1950930  99.7832200  44.1166898  94.7027309 100.4765056
  45.3070024  94.6523898  99.5424275  37.0354246  91.3862471  99.7856828
  37.8612266  91.0866243  99.4055471  36.6848298  90.6170093 100.2346617
  42.0035780  90.7388939 101.8554501  41.3815789  90.0759644 101.5556729
  42.6740647  90.7650071 101.1728149  35.2362851  89.3048797 100.7445761
  34.3994760  88.8770972 100.5629763  35.2086497  89.4981241 101.6816553
  42.0760307  79.2170727 111.4487007  42.1248463  80.0932850 111.0664777
  42.6182821  78.6748120 110.8758651  52.5615153  89.7611850 110.7288145
  51.7710696  89.7435989 110.1892644  52.3248507  90.3000144 111.4837181
  52.6813028  86.6104317 108.0420873  52.7311033  86.4454324 108.9836396
  52.5726951  85.7431576 107.6518754  44.3059596  79.9702099 108.2033366
  43.4362905  80.2635665 107.9315955  44.5419076  80.5542544 108.9240630
  54.1831225  89.0301258 108.2862895  53.8916033  89.3931239 109.1226356
  53.5703356  88.3168266 108.1076227  47.0098629  76.1881716 105.7198787
  47.5280573  76.9242743 105.3945275  46.6553762  76.4945710 106.5545546
  49.1534461  78.1155216 105.1730659  48.5584393  78.3960229 104.4777148
  48.8684158  78.6049117 105.9447400  59.4284710  85.3121759 103.2419595
  60.1588098  85.0507048 103.8027298  58.8191655  84.5750481 103.2821663
  57.5100007  83.4529622 103.8394046  56.7833170  83.3185587 103.2310537
  57.0947294  83.7606451 104.6450764  45.3330183  87.1719552 111.6041419
  46.2533193  87.3498151 111.7981465  45.2979766  86.2275597 111.4521118
  34.5512348  82.3658145 100.5294694  34.2315132  81.5123454 100.2369068
  34.0045776  82.5806723 101.2852661  38.3292256  85.0820586 104.2464200
  38.5478265  86.0137694 104.2652234  38.7418029  84.7228561 105.0319004
  43.2020121  80.6553792 113.6366949  43.1016848  81.6048149 113.5679040
  42.9841663  80.3272031 112.7643019  34.4200608  85.9861057 102.4987815
  33.7264080  85.5715010 101.9857770  35.1673599  86.0281593 101.9021234
  43.0651391  84.0850931 112.4532011  42.5818473  84.8851291 112.6595900
  43.1512330  84.0958876 111.4999455  36.3337351  85.9179311 100.3753830
  36.3108039  86.0166998  99.4235713  36.6437987  86.7644461 100.6970996
  38.9924728  87.9755466 104.4900444  39.9467982  87.9439408 104.4230376
  38.7937252  87.5146089 105.3050670  39.5824111  86.5456582 107.0571242
  40.4017000  87.0400660 107.0806079  39.8560918  85.6288550 107.0288810
  37.3474957  93.5175085 101.5070642  37.2129425  92.7575486 100.9408640
  36.9307020  94.2415985 101.0399431  40.5044083  94.4144402 101.7189085
  40.3876467  95.3589835 101.6167775  39.6836529  94.1117964 102.1074884
  34.8359025  80.8794716 107.7563439  35.4817888  80.3693670 108.2450664
  34.6276176  81.6163397 108.3306864  47.3612417  87.9475563 113.2555580
  48.2303577  88.1216215 112.8942215  46.8819169  88.7669980 113.1331309
  41.5298597  95.0672664 104.9345013  42.4325844  95.0996274 105.2511508
  41.3035967  94.1373115 104.9491349  43.2852199  93.8203651 101.5955092
  42.3347830  93.8205512 101.4819464  43.5884685  93.0736385 101.0791127
  39.1756516  78.0262333 111.8538453  40.0387977  77.6699137 112.0641778
  38.6021926  77.6876227 112.5413858  59.0204893  99.6564189 102.6600854
  59.6583303  99.5370936 101.9564194  58.9025736 100.6045033 102.7188807
  55.8294599  99.6091617 102.5962379  55.4913111  99.4932682 101.7082914
  56.6984367  99.2082782 102.5763385  51.6881415 101.4627093  98.5859270
  51.1246280 101.3717030  97.8175558  51.5733810 100.6426998  99.0661763
  56.3114382 100.7626469 108.5548585  56.3003023 100.3679267 107.6829088
  56.4735022 100.0292541 109.1482356  49.2345847 102.9578285 101.4243490
  50.0267139 102.6169110 101.0089790  49.4742497 103.0673260 102.3445644
  57.2680973 105.1298061  93.8973735  56.6168953 105.7152142  93.5107749
  58.0625336 105.6604256  93.9568772  51.1936601 102.2187198  94.2960869
  51.9667477 101.6716185  94.1573745  51.5461999 103.0831448  94.5075331
  53.0321643 103.5463581 107.5027769  52.7411509 104.4509211 107.3874435
  53.6678628 103.5880108 108.2171838  53.9577850 100.9240429 104.0929128
  54.5541422 100.6996452 103.3786091  54.0152822 100.1825175 104.6954576
  53.5302878  98.3779864  91.9279319  53.7828399  97.8561386  91.1662782
  52.5927438  98.2146010  92.0306003  58.5746161  97.3815643  99.7354062
  59.3609250  96.9635066  99.3844479  58.8384866  98.2861735  99.9035711
  58.7456239 102.8188493  94.4342719  58.1102072 102.8923120  95.1463624
  58.4153645 103.4082092  93.7561798  63.9754588  97.3190876 100.6387041
  64.7079760  96.7490093 100.8724870  63.2193944  96.9312476 101.0793547
  53.2499167 100.2807970  94.1303694  53.1335425  99.6052874  94.7984778
  53.3601427  99.7940344  93.3135847  55.5930708  99.7418118  97.8350383
  55.2288915  99.2148738  98.5463305  56.4497824  99.3516587  97.6616869
  61.4980009  91.0312450 105.0981650  61.1663334  91.9007861 104.8742865
  60.9025622  90.7148734 105.7775680  55.2336195  94.7708017  92.8311732
  55.4010597  95.6388254  93.1982203  55.0433364  94.9335299  91.9073021
  57.9911528 103.2324996 104.4977562  57.6912251 104.1350035 104.3893369
  57.6462588 102.9657179 105.3498715  51.4424010  99.6838793 100.5314267
  50.5174506  99.5515007 100.7391958  51.6908423 100.4633012 101.0284209
  61.3908672  95.7507536 102.1775000  60.4825549  95.6822945 101.8833761
  61.3396268  96.2279481 103.0056825  55.2125416  97.2265675  93.8158399
  55.0925041  97.6722725  94.6543879  54.5178004  97.5750992  93.2571937
  48.8032821  99.3272066 101.3658056  48.9325202  99.5806545 102.2797467
  48.1230272  99.9199774 101.0462711  52.9732308 109.9969316  97.4648530
  52.8956338 110.9477142  97.5437011  52.3693952 109.6515189  98.1223456
  55.4649538  97.1697182 110.1209897  54.6882872  97.7291102 110.1112761
  56.1040101  97.6553965 110.6424767  63.2570318  93.9523975 103.9552874
  62.6144699  94.2456508 103.3092668  62.7525247  93.8376895 104.7606070
  60.9110482  97.6987148  94.6438733  61.8228338  97.9314535  94.4686430
  60.4020129  98.2824192  94.0813811  53.7195910  99.9782635 109.6827864
  54.4610595 100.5167679 109.4062687  53.0132896 100.6048924 109.8399416
  59.1951250 102.1211776 108.2800025  59.6034606 101.6794186 107.5354658
  58.4728511 101.5464403 108.5334218  55.5482320  97.0584382 105.6533582
  56.3943515  97.4823796 105.7968231  55.4880958  96.4018007 106.3472145
  59.5180064 102.6812966 102.0352314  58.8888927 102.8458680 101.3328382
  59.1305727 103.0954576 102.8063278  63.3969296 103.6167404  99.3896678
  62.7120334 103.9966306  98.8393711  63.4813146 104.2262731 100.1228626
  58.6981765  94.7188751 107.3114756  58.4542697  95.4730811 106.7749032
  58.9741696  95.0974098 108.1462003  60.6520228 101.2627363 105.9892022
  60.8637123 101.9059123 105.3126403  60.6049976 100.4289680 105.5213952
  58.2546457  93.8745184 102.8928594  57.3930936  94.1726437 103.1845331
  58.2808892  94.0915583 101.9609626  55.0708026 102.4187374  99.3002399
  55.5346372 102.6975077  98.5107022  54.8064824 101.5170819  99.1175490
  51.9632107 101.9658856 102.2382163  52.5333464 102.3946124 101.5999647
  52.5540219 101.6841441 102.9366348  54.0076912  98.5410527  96.1091964
  54.7100956  98.9931570  96.5765891  53.6757541  97.8994346  96.7371858
  52.4557274  97.1322283 110.4843174  51.8255934  97.8138564 110.7178571
  52.3493362  97.0205365 109.5396312  47.7502246  96.7994079 101.4109098
  46.9601300  97.0551608 100.9349209  48.2413494  97.6142417 101.5161139
  61.7666056 104.1399319 104.1614379  62.5883500 103.7379506 103.8797060
  61.7628459 104.0367553 105.1130495  49.7016992  97.1638659  98.3692575
  48.9048155  97.2757353  98.8876070  49.4742584  97.5025311  97.5033465
  55.5322659 103.6883362 106.3175089  55.5967092 104.1503769 107.1533261
  54.8233583 103.0580727 106.4457399  46.0339949  97.0524570 103.8424089
  46.2847988  97.9371580 104.1081665  46.5699498  96.8729171 103.0699181
  69.8572049 100.4838067 100.5099350  69.1035757  99.9145465 100.3543355
  69.9919590 100.4500732 101.4569985  55.2470677 105.3551469  96.1854070
  55.1116352 106.2003005  96.6138917  55.7880489 105.5570747  95.4220003
  51.7338017  91.4343049 112.8468425  51.3404962  90.8809248 113.5216069
  52.5504157  91.7453628 113.2374942  48.7000074 102.8726907  96.7581995
  49.2124595 103.6670158  96.9087559  49.3522787 102.1753198  96.6915596
  50.5094959 105.9892664  98.8404748  50.6861587 106.9110628  98.6525732
  51.3051793 105.6751083  99.2699128  54.6505978  92.8500928 110.4388681
  55.3915691  93.4508081 110.3593144  54.8823900  92.1078566 109.8806724
  49.7947316  98.0357296 108.7166911  49.6800831  97.1342553 109.0174010
  48.9391833  98.2820992 108.3651728  56.8739153 105.9775036 110.3154412
  56.4303008 105.1911414 109.9975316  57.5356367 106.1654186 109.6498303
  51.6326275 107.5070838 104.8415090  52.1833700 107.3787901 104.0692084
  50.7937750 107.8065727 104.4909983  58.9720391 106.2577836 108.3435813
  58.9538867 107.0786717 107.8516082  59.8940311 106.1331911 108.5685954
  55.4293446 103.7721965 109.1859321  55.9621782 103.0110254 108.9558629
  54.9007527 103.4795617 109.9283476  58.5963141  88.8782031 104.7152963
  58.2527410  89.7683673 104.6392074  58.9642103  88.6883689 103.8522548
  46.6648991 101.2015562  97.5341565  47.5024213 101.6112570  97.3175273
  46.8427259 100.2615004  97.5041759  58.5613423  98.8690642  93.2225398
  58.0460047  99.6395247  93.4613786  58.2890732  98.1955779  93.8458460
  56.1460534  93.7140343  98.2810637  55.2902131  93.3247194  98.1016275
  56.5587486  93.7932304  97.4210422  57.6759681  91.2486686 102.6802196
  57.1724477  91.2116822 101.8670002  57.9690288  92.1579429 102.7398853
  53.9202567  91.3325416 101.6868378  54.7855564  91.1368225 101.3274268
  53.9880076  91.1035768 102.6137735  63.5347697 101.6222997  95.1578572
  62.7577140 101.2834157  94.7133734  64.2139178 101.6275620  94.4833537
  58.3499726  96.7417734  95.0485179  58.0449862  97.0563884  95.8995323
  59.3030169  96.8199154  95.0912512  56.7946158 102.9007958  96.6978133
  56.2667520 102.1660717  96.3851371  56.2933661 103.6782634  96.4518102
  61.7739004 101.0956978 101.8145180  61.1162679 101.7856240 101.9025308
  62.5779404 101.4853410 102.1579166  51.5264886  93.5627624  99.0584745
  52.1008638  93.3402806  98.3257938  52.1135868  93.6316319  99.8113346
  60.5844463  99.4501351  99.8649121  61.0976345 100.0831343 100.3670831
  61.2345687  98.8502546  99.4992481  51.8534473  95.5932085  93.0780630
  51.0171785  95.9306772  93.3989905  51.7139243  95.4581065  92.1407767
  54.9398758 100.7188168  89.7013106  54.0325820 100.4877422  89.9004255
  55.4369790  99.9225787  89.8887088  57.8466837 109.4285675  92.6209793
  57.1728536 109.7317372  93.2294750  58.2332659 110.2314756  92.2715250
  57.0625294  96.9250807 102.1107462  56.1447855  97.1465754 101.9529150
  57.4785438  96.9997117 101.2519169  57.8460342  98.3242222  97.2410142
  58.5932161  98.8363619  96.9317264  58.1151931  98.0026275  98.1014536
  56.1186992 100.8200763  94.2237097  55.2098211 100.5359796  94.3209566
  56.1482076 101.2399842  93.3640403  61.3506259 104.4307352  97.9928264
  60.8968586 103.5898262  98.0493455  60.7200226 105.0668751  98.3303044
  60.2939179  95.3599338  99.2228932  59.5561936  94.8476725  99.5539174
  60.5465952  94.9199720  98.4112208  59.7939199 106.2683849  98.9278082
  60.0862173 106.8288906  98.2090448  60.3037819 106.5612410  99.6831241
  60.3950806  88.1375590  99.8170701  60.7009683  87.2772954  99.5296616
  61.1203411  88.7293211  99.6169695  46.6875162  98.5406277  98.2052299
  46.4899562  97.9475638  97.4803365  46.1321826  98.2358487  98.9228238
  54.6671886  98.4329384 100.3246892  54.7220496  97.4803220 100.2489368
  53.8563088  98.5888823 100.8088190  55.8163080 102.3609507  91.5625175
  55.3782510 101.6445366  91.1030812  56.5573521 102.5885621  91.0010267
  52.6064246  97.0506443  98.0837271  51.7932111  97.3500614  98.4902463
  53.1023240  96.6562132  98.8011753  54.7572824 107.0464200 100.0171535
  54.7149003 107.2725047  99.0880067  55.6735523 106.8127575 100.1657337
  58.2038458  97.5148268 106.9152165  58.5587845  97.7419741 107.7746630
  58.8510589  97.8466645 106.2929420  63.9336194 100.6366704  97.6201494
  63.7954093 100.8268300  96.6922683  63.5772413 101.3986086  98.0769545
  52.0978321  94.6224799 103.6998506  52.7377700  94.4813558 103.0021469
  51.2655851  94.3359312 103.3237108  63.9605574 102.7043231 102.6312765
  64.3942081 102.6118520 103.4795819  64.6737155 102.6800731 101.9932781
  52.8738625 103.9227229  99.8133498  53.6679223 103.4277549  99.6116073
  52.1630317 103.3945092  99.4501204  57.6933469 106.3045325 104.1645866
  57.7470491 106.8736261 104.9323582  56.8248250 106.4747210 103.7999903
  49.1821388  98.0670311  95.8893251  48.2518976  98.0054766  96.1063213
  49.2778860  97.5446264  95.0929892  49.1006937  94.5925124  98.4771493
  49.3613754  95.5070457  98.3680653  49.9224109  94.1249566  98.6268105
  50.5731862  96.0062881 105.6470317  51.2454916  95.7980243 104.9982966
  49.7461649  95.8084967 105.2075549  64.8221124 102.7466931 105.1645651
  65.0157014 103.6512742 105.4104926  64.7221742 102.2874350 105.9984236
  56.4757434  92.6324822 107.6635978  55.8285349  93.3314772 107.5700454
  57.2458450  93.0660966 108.0312226  59.8836232 102.8973674 110.7386531
  59.7321739 102.6684226 109.8216615  59.8740912 103.8544275 110.7517876
  56.6521569 100.4705587 105.7232798  57.5813629 100.6216746 105.5501765
  56.2312599 100.5589608 104.8681444  55.4509901 104.4956251 103.4931335
  55.3120986 104.1275036 104.3657273  54.6624497 105.0103891 103.3215293
  56.0458052 109.5965348  94.8356872  56.2209808 109.1253391  95.6502494
  55.3590841 110.2231114  95.0638133  57.0015116 103.8737854 100.8820173
  56.6664948 103.8338624 101.7777823  56.5019061 103.2082570 100.4090583
  50.9759360  99.2805484 106.4072754  50.8379158  98.5485723 107.0084293
  51.8864283  99.1914384 106.1256942  59.9374307 101.2193888  91.1557233
  59.3203478 100.4940716  91.0590285  59.4690796 101.9803249  90.8124307
  53.6041660  98.9925443 105.8956434  54.3141279  98.3518635 105.8543052
  53.5610968  99.2438338 106.8182615  61.5928439 105.9292797 108.8163013
  61.5340985 105.2452017 108.1493596  61.9947957 106.6711787 108.3643639
  52.3170594  95.9790661 107.7152073  51.7807951  95.5281400 108.3673670
  51.7287303  96.1136570 106.9722538  50.6119138 112.7454710 101.6096732
  50.8515736 113.3773235 102.2875751  49.7688334 112.3942750 101.8962091
  51.7272853  95.4379313  90.2778537  50.8502320  95.3168113  89.9140784
  52.2030606  94.6465391  90.0257426  61.5945846 103.8932381 107.0476993
  60.7072625 103.5558302 107.1703392  62.1644397 103.1615412 107.2845758
  43.2474993 100.2256472 100.3720044  43.9346033  99.9118202  99.7841059
  43.0923122 101.1297837 100.0987296  48.0509716  95.1146669 104.8005068
  47.9667904  94.5072338 104.0655478  47.2292422  95.6055687 104.8014564
  55.1247000 108.5533833 104.0138236  55.0517171 109.3588804 104.5257541
  54.6824393 108.7525799 103.1886257  54.9136779 107.7905603  97.5241057
  54.1304301 108.3327283  97.6179282  55.6129524 108.3079583  97.9235299
  58.2233429  93.6000232 100.1675263  58.7202129  92.8470195  99.8476333
  57.4520411  93.6364549  99.6018472  66.0763187  99.3040598 101.8093554
  66.0653063 100.1865313 101.4387487  65.2080566  98.9512149 101.6148091
  57.5845683 108.4520667 106.1696395  58.2973655 109.0868132 106.0972296
  57.0935712 108.5484533 105.3536396  59.3063210 102.3571920  97.7413686
  58.3719489 102.4773382  97.5718391  59.4839879 101.4544386  97.4773696
  54.8068398  95.7417615  99.8946947  54.4366186  95.1888656 100.5827853
  55.3027491  95.1375749  99.3421948  62.6935761  98.1989239  98.2763720
  63.1596214  99.0317230  98.2024023  63.1443262  97.7334220  98.9808979
  52.6357597 106.2015110 106.9901965  53.3367056 106.8351593 107.1431360
  52.1652712 106.5429842 106.2297605  60.7611993 104.5433060  95.2749872
  61.0371836 104.4289655  96.1843747  59.8916491 104.1450545  95.2362046
  60.6652424  90.5669826 102.3154622  59.7515504  90.7974053 102.4836829
  61.0945526  90.6508270 103.1668654  60.4358883  98.7559718 104.8154516
  59.7830333  99.0035625 104.1606969  60.8139263  97.9423856 104.4816993
  57.3966057 108.7919411  98.9182686  57.5788451 107.9741067  99.3810438
  58.2199043 109.0087103  98.4807576  57.7308222 107.7187596  96.1797735
  58.2595988 107.2080051  95.5667897  57.9936442 107.4030126  97.0443268
  56.4846456  99.4979529 111.3020553  55.8087093  99.3973658 111.9722928
  57.3074090  99.3418743 111.7656550  48.2325315 105.7351465 103.9233068
  48.8178752 104.9895153 104.0560972  48.0350153 106.0455422 104.8069732
  51.0863970 108.7702713  98.9395510  50.4174345 109.2548840  98.4559551
  50.9476840 109.0171933  99.8538889  42.8242969  98.3057066 102.6437511
  42.8627069  97.7720656 103.4374629  42.3183262  97.7792271 102.0248488
  55.2269239 110.8046456 105.5378169  55.7787547 110.9678078 106.3027254
  55.5675432 111.3950894 104.8658194  50.2033732  93.1521606 106.1400054
  50.2675058  94.0136437 105.7277451  50.1400852  92.5395608 105.4072412
  49.6786004  95.2244739 109.7873088  50.3058043  94.8421816 110.4010612
  48.8213923  95.0058941 110.1528780  46.4551547  97.0321168  95.7191443
  46.7504988  96.1231846  95.6658496  45.5539583  97.0108907  95.3972445
  58.3637626 108.7528432 102.5241851  58.2388765 107.9518172 102.0152797
  59.0216717 109.2474625 102.0355821  49.9845794  95.1077164 101.7018991
  49.2632380  95.7213132 101.5626465  50.7739050  95.6434929 101.6235637
  60.4272534 106.5537452 104.1521401  59.4802870 106.4342803 104.0799728
  60.7755307 105.6659950 104.2347663  52.7872108  92.4431591 107.9759643
  53.3106509  92.6893887 108.7385952  52.5684441  93.2751626 107.5562780
  48.1839389  94.7135265  95.8430768  47.8552095  93.8332644  95.6605874
  48.5378759  94.6582934  96.7307157  57.4318968 106.3490168 100.3525753
  57.2843930 105.4206876 100.5333323  58.2572461 106.3710259  99.8682829
  51.2981212  95.0008235  96.2106245  51.6377284  95.5294157  95.4884854
  51.7453332  95.3388641  96.9864812  61.0353089 107.1718727 101.4390626
  61.9599637 106.9661588 101.3015077  60.8668393 106.9235128 102.3479968
  53.9924653  93.3845286 105.6609314  53.6521473  92.5853099 106.0629993
  53.2863659  93.6846997 105.0886147  54.6441124  90.4694598 104.1136637
  55.4667194  89.9955077 103.9915527  54.8879188  91.2485082 104.6135323
  53.2849359  93.4982857  94.4099538  54.0057721  93.8764110  93.9063255
  52.6614663  94.2171734  94.5134516  57.4280482  94.2028006  95.3457871
  57.6444096  95.0852644  95.0446699  56.9474549  93.8114219  94.6163513
  52.1679703  97.1613719 101.9228615  52.0224284  97.4754022 102.8152897
  51.6904907  97.7798619 101.3699514  54.0276086  94.1516267 101.9709505
  54.0137655  93.2557360 101.6341803  54.7448514  94.1586931 102.6047791
  55.8802217  94.5853607 104.0162632  55.6219995  95.5070678 104.0146963
  55.3487257  94.1884042 104.7063096  60.8248406 107.6904394  96.7952718
  60.9985283 107.1250817  96.0426570  61.3177297 108.4905289  96.6132207
  46.6425365  99.7019063 104.8616276  46.0978833 100.4778871 104.9936551
  47.5204715 100.0489868 104.7035398  53.4312982  93.0330647  97.2397075
  53.5528893  92.1047293  97.4387962  53.1415024  93.0469333  96.3275390
  56.3004172  90.7185558 100.3763795  56.3225869  90.7824891  99.4215774
  56.7172231  89.8790066 100.5704301  66.6787797 100.4540817  98.4143017
  67.1218943  99.7048143  98.0162141  65.8014307 100.4450954  98.0316749
  61.8123578 107.0071159  93.8949616  62.5074483 107.6277851  94.1136930
  62.1546728 106.1566510  94.1701994  47.4291387  98.8288960 107.7546433
  46.6873123  98.9771595 108.3411064  47.1084132  99.0897225 106.8913183
  63.7115001 104.4570864  95.4236947  64.2366325 104.7958137  94.6986267
  63.6237354 103.5217880  95.2400081  55.3735050 108.3704938 107.5526823
  55.6822176 108.1254085 108.4249523  56.1710532 108.5751576 107.0645693
  55.3955662 110.5242848  99.7832200  54.9560652 110.0319226 100.4765056
  56.1463779 109.9815815  99.5424275  47.8748001 106.7154388  99.7856828
  48.7006021 106.4158160  99.4055471  47.5242053 105.9462011 100.2346617
  52.8429534 106.0680857 101.8554501  52.2209543 105.4051562 101.5556729
  53.5134401 106.0941989 101.1728149  46.0756606 104.6340715 100.7445761
  45.2388514 104.2062889 100.5629763  46.0480251 104.8273158 101.6816553
  52.9154062  94.5462645 111.4487007  52.9642217  95.4224767 111.0664777
  53.4576576  94.0040038 110.8758651  63.5206782 101.9396234 108.0420873
  63.5704787 101.7746242 108.9836396  63.4120706 101.0723493 107.6518754
  52.4043041 104.6184780  95.3312962  52.5531161 105.3020244  94.6779635
  53.2109484 104.5989870  95.8462418  60.8110545  97.9227162 109.3580180
  61.7120407  97.7833627 109.0664178  60.8858519  98.0881617 110.2978357
  55.1453350  95.2994017 108.2033366  54.2756659  95.5927583 107.9315955
  55.3812830  95.8834462 108.9240630  65.0224979 104.3593176 108.2862895
  64.7309787 104.7223156 109.1226356  64.4097110 103.6460184 108.1076227
  66.2220661 101.9246056 100.8065465  67.0567553 102.3635860 100.9703025
  66.3579790 101.4484709  99.9873711  63.2712167  99.4825790 106.7542953
  63.7466289  99.6753437 105.9461804  62.3477733  99.5384976 106.5086336
  50.1595674 100.6449958  96.3374031  49.9141716  99.7412288  96.5354241
  50.3291589 100.6467108  95.3953509  57.8492384  91.5173634 105.7198787
  58.3674328  92.2534661 105.3945275  57.4947517  91.8237627 106.5545546
  49.4291322  96.3778315  93.8360192  48.7360566  96.4522670  93.1800228
  49.1843073  95.6138659  94.3581709  58.1004978  87.9373917 101.2399683
  58.3806732  87.2697106 101.8660110  58.8855585  88.1303012 100.7274347
  55.9038447 107.1132910  92.8024709  55.3312414 107.7323098  92.3495181
  56.4771240 107.6632272  93.3364631  61.9713836  96.3591551 104.9871258
  62.9231259  96.4589648 105.0083482  61.8017287  95.5669819 105.4969343
  59.9928216  93.4447134 105.1730659  59.3978148  93.7252146 104.4777148
  59.7077913  93.9341035 105.9447400  59.1235706 107.3970061  93.9333292
  60.0566379 107.3315622  94.1366167  59.0358919 108.2326327  93.4747824
  61.7523723 106.7135931  90.8937239  61.6737355 106.3795795  91.7872997
  62.5733390 107.2057699  90.8928712  64.4501914  99.5797670 104.1013558
  64.4178234  98.6413671 104.2873242  65.0602538  99.6581707 103.3679383
  56.2885245  98.4493723  90.1440762  57.2344350  98.3199931  90.2129180
  55.9099490  97.7108385  90.6210190  64.5996403  96.3708714 104.1471841
  64.0835451  95.5867170 103.9601770  65.4836351  96.0427430 104.3118361
  62.2607130  90.1149729 100.1067654  62.0631951  89.8064817 100.9910986
  62.8706835  90.8411368 100.2365584  70.2678464 100.6413677 103.2419595
  70.9981852 100.3798965 103.8027298  69.6585409  99.9042399 103.2821663
  68.3493761  98.7821540 103.8394046  67.6226925  98.6477505 103.2310537
  67.9341048  99.0898368 104.6450764  56.1723938 102.5011469 111.6041419
  57.0926947 102.6790068 111.7981465  56.1373521 101.5567515 111.4521118
  54.4728162  96.3743700  90.0795647  53.5659618  96.0776812  90.1558361
  54.7504143  96.0773518  89.2129933  45.3906103  97.6950063 100.5294694
  45.0708887  96.8415371 100.2369068  44.8439531  97.9098641 101.2852661
  49.1686010 100.4112504 104.2464200  49.3872020 101.3429612 104.2652234
  49.5811784 100.0520478 105.0319004  56.0890228  90.9180589  96.2339888
  55.2790956  90.5727674  96.6095135  56.7774645  90.6088133  96.8227500
  58.0180776  89.9958636  97.8564185  58.5711815  90.4154090  98.5154208
  58.2550863  89.0694384  97.8987141  54.0413875  95.9845710 113.6366949
  53.9410602  96.9340067 113.5679040  53.8235417  95.6563949 112.7643019
  45.2594363 101.3152974 102.4987815  44.5657834 100.9006927 101.9857770
  46.0067354 101.3573511 101.9021234  61.3959583  92.1059161  97.3642849
  60.8158252  92.7643965  96.9820902  61.1295516  91.2836506  96.9530267
  59.8463150  91.5064219  99.5664170  60.3462928  91.6180754  98.7578488
  60.4898758  91.2025272 100.2064978  53.9045145  99.4142849 112.4532011
  53.4212227 100.2143209 112.6595900  53.9906085  99.4250793 111.4999455
  47.1731105 101.2471228 100.3753830  47.1501793 101.3458916  99.4235713
  47.4831742 102.0936379 100.6970996  49.8318483 103.3047383 104.4900444
  50.7861737 103.2731326 104.4230376  49.6331007 102.8438007 105.3050670
  50.4217865 101.8748499 107.0571242  51.2410754 102.3692578 107.0806079
  50.6954673 100.9580467 107.0288810  60.1784461  94.2659252  96.4199198
  59.2910316  94.5508902  96.2019392  60.5938450  94.1053015  95.5726474
  63.5298997  94.2905773 100.1353537  64.3059388  94.7802225 100.4078154
  62.8047132  94.7163827 100.5925406  65.9671556  95.0033392 101.1927477
  66.5616047  94.7629128 100.4820786  66.0398140  94.2840522 101.8201014
  48.1868712 108.8467003 101.5070642  48.0523180 108.0867404 100.9408640
  47.7700774 109.5707903 101.0399431  59.3227675 104.0303926  90.5147218
  60.0263525 104.2353929  91.1304873  58.5990324 104.5980688  90.7796301
  60.1525485  99.7813788  96.6349488  60.0960686 100.2382339  95.7957120
  60.7053828  99.0204472  96.4572331  63.9630291  95.5703519  97.4599607
  63.7067225  95.1700155  98.2907815  63.3383159  96.2847313  97.3349746
  68.2742629  98.3099593  99.9670899  67.7142187  98.3792782 100.7402461
  67.6686132  98.1340577  99.2470395  51.3437838 109.7436320 101.7189085
  51.2270222 110.6881752 101.6167775  50.5230284 109.4409881 102.1074884
  61.2314372 104.4686456  92.5645678  62.0659976 104.0367654  92.3823152
  61.0698715 104.2968469  93.4922572  60.8860264 100.9718569  93.9302017
  60.8309068 100.8062840  92.9890461  60.2606320 101.6794602  94.0864207
  45.6752779  96.2086633 107.7563439  46.3211643  95.6985587 108.2450664
  45.4669930  96.9455315 108.3306864  52.3692352 110.3964582 104.9345013
  53.2719598 110.4288192 105.2511508  52.1429722 109.4665033 104.9491349
  54.1245954 109.1495568 101.5955092  53.1741585 109.1497430 101.4819464
  54.4278440 108.4028303 101.0791127  50.0150270  93.3554250 111.8538453
  50.8781732  92.9991055 112.0641778  49.4415681  93.0168145 112.5413858
  66.6688354 114.9383535 102.5962379  66.3306865 114.8224599 101.7082914
  67.5378122 114.5374700 102.5763385  62.5275169 116.7919011  98.5859270
  61.9640034 116.7008948  97.8175558  62.4127564 115.9718916  99.0661763
  60.0739601 118.2870203 101.4243490  60.8660893 117.9461027 101.0089790
  60.3136251 118.3965178 102.3445644  68.1074728 120.4589979  93.8973735
  67.4562708 121.0444059  93.5107749  68.9019091 120.9896174  93.9568772
  62.0330355 117.5479116  94.2960869  62.8061231 117.0008103  94.1573745
  62.3855754 118.4123365  94.5075331  64.3696633 113.7071782  91.9279319
  64.6222154 113.1853303  91.1662782  63.4321192 113.5437928  92.0306003
  69.4139916 112.7107560  99.7354062  70.2003005 112.2926984  99.3844479
  69.6778620 113.6153653  99.9035711  69.5849993 118.1480411  94.4342719
  68.9495826 118.2215037  95.1463624  69.2547400 118.7374010  93.7561798
  74.8148343 112.6482794 100.6387041  75.5473515 112.0782010 100.8724870
  74.0587699 112.2604394 101.0793547  64.0892922 115.6099888  94.1303694
  63.9729180 114.9344791  94.7984778  64.1995182 115.1232262  93.3135847
  66.4324463 115.0710035  97.8350383  66.0682670 114.5440656  98.5463305
  67.2891579 114.6808504  97.6616869  72.3373763 106.3604368 105.0981650
  72.0057088 107.2299779 104.8742865  71.7419377 106.0440652 105.7775680
  66.0729950 110.0999935  92.8311732  66.2404352 110.9680171  93.1982203
  65.8827119 110.2627217  91.9073021  62.2817764 115.0130711 100.5314267
  61.3568261 114.8806925 100.7391958  62.5302177 115.7924930 101.0284209
  66.0519170 112.5557592  93.8158399  65.9318796 113.0014643  94.6543879
  65.3571759 112.9042910  93.2571937  59.6426575 114.6563984 101.3658056
  59.7718956 114.9098463 102.2797467  58.9624027 115.2491692 101.0462711
  63.8126063 125.3261234  97.4648530  63.7350092 126.2769059  97.5437011
  63.2087706 124.9807107  98.1223456  71.7504237 113.0279066  94.6438733
  72.6622093 113.2606452  94.4686430  71.2413884 113.6116110  94.0813811
  69.0940211 109.2037102 102.8928594  68.2324690 109.5018355 103.1845331
  69.1202646 109.4207500 101.9609626  65.9101781 117.7479292  99.3002399
  66.3740126 118.0266995  98.5107022  65.6458579 116.8462737  99.1175490
  62.8025862 117.2950774 102.2382163  63.3727219 117.7238042 101.5999647
  63.3933974 117.0133358 102.9366348  64.8470667 113.8702444  96.1091964
  65.5494710 114.3223488  96.5765891  64.5151295 113.2286263  96.7371858
  58.5896001 112.1285997 101.4109098  57.7995055 112.3843526 100.9349209
  59.0807248 112.9434335 101.5161139  60.5410746 112.4930576  98.3692575
  59.7441909 112.6049271  98.8876070  60.3136338 112.8317229  97.5033465
  56.8733704 112.3816488 103.8424089  57.1241742 113.2663497 104.1081665
  57.4093252 112.2021089 103.0699181  66.0864431 120.6843387  96.1854070
  65.9510106 121.5294923  96.6138917  66.6274244 120.8862665  95.4220003
  59.5393829 118.2018825  96.7581995  60.0518349 118.9962075  96.9087559
  60.1916542 117.5045116  96.6915596  61.3488714 121.3184581  98.8404748
  61.5255342 122.2402546  98.6525732  62.1445547 121.0043001  99.2699128
  69.4356895 104.2073949 104.7152963  69.0921164 105.0975591 104.6392074
  69.8035858 104.0175607 103.8522548  57.5042746 116.5307479  97.5341565
  58.3417968 116.9404488  97.3175273  57.6821013 115.5906922  97.5041759
  69.4007178 114.1982560  93.2225398  68.8853801 114.9687165  93.4613786
  69.1284486 113.5247696  93.8458460  66.9854289 109.0432261  98.2810637
  66.1295885 108.6539111  98.1016275  67.3981241 109.1224222  97.4210422
  68.5153435 106.5778604 102.6802196  68.0118231 106.5408739 101.8670002
  68.8084042 107.4871347 102.7398853  64.7596321 106.6617334 101.6868378
  65.6249318 106.4660143 101.3274268  64.8273830 106.4327686 102.6137735
  74.3741452 116.9514915  95.1578572  73.5970895 116.6126074  94.7133734
  75.0532933 116.9567538  94.4833537  69.1893481 112.0709652  95.0485179
  68.8843617 112.3855801  95.8995323  70.1423923 112.1491072  95.0912512
  67.6339913 118.2299875  96.6978133  67.1061274 117.4952635  96.3851371
  67.1327416 119.0074552  96.4518102  62.3658640 108.8919542  99.0584745
  62.9402392 108.6694723  98.3257938  62.9529623 108.9608236  99.8113346
  71.4238218 114.7793269  99.8649121  71.9370099 115.4123261 100.3670831
  72.0739441 114.1794464  99.4992481  62.6928227 110.9224003  93.0780630
  61.8565540 111.2598689  93.3989905  62.5532997 110.7872983  92.1407767
  64.6681308 105.7660791  97.7859814  64.0145720 105.4509808  97.1616429
  64.6261782 105.1436531  98.5119637  65.7792513 116.0480086  89.7013106
  64.8719575 115.8169339  89.9004255  66.2763545 115.2517705  89.8887088
  68.6860592 124.7577593  92.6209793  68.0122291 125.0609290  93.2294750
  69.0726414 125.5606673  92.2715250  67.9019048 112.2542724 102.1107462
  66.9841610 112.4757671 101.9529150  68.3179192 112.3289035 101.2519169
  68.6854096 113.6534140  97.2410142  69.4325915 114.1655537  96.9317264
  68.9545686 113.3318193  98.1014536  66.9580746 116.1492681  94.2237097
  66.0491966 115.8651713  94.3209566  66.9875830 116.5691759  93.3640403
  71.1332933 110.6891256  99.2228932  70.3955690 110.1768642  99.5539174
  71.3859707 110.2491638  98.4112208  71.2344561 103.4667508  99.8170701
  71.5403438 102.6064872  99.5296616  71.9597166 104.0585128  99.6169695
  57.5268917 113.8698195  98.2052299  57.3293317 113.2767555  97.4803365
  56.9715581 113.5650405  98.9228238  65.5065640 113.7621301 100.3246892
  65.5614250 112.8095138 100.2489368  64.6956842 113.9180740 100.8088190
  66.6556834 117.6901424  91.5625175  66.2176264 116.9737283  91.1030812
  67.3967275 117.9177539  91.0010267  63.4458000 112.3798361  98.0837271
  62.6325866 112.6792532  98.4902463  63.9416995 111.9854050  98.8011753
  74.7729949 115.9658621  97.6201494  74.6347848 116.1560217  96.6922683
  74.4166168 116.7278004  98.0769545  62.9372075 109.9516716 103.6998506
  63.5771454 109.8105476 103.0021469  62.1049606 109.6651230 103.3237108
  63.7132379 119.2519147  99.8133498  64.5072978 118.7569467  99.6116073
  63.0024071 118.7237010  99.4501204  60.0215142 113.3962229  95.8893251
  59.0912731 113.3346684  96.1063213  60.1172614 112.8738181  95.0929892
  59.9400692 109.9217041  98.4771493  60.2007509 110.8362375  98.3680653
  60.7617864 109.4541484  98.6268105  61.4125617 111.3354799 105.6470317
  62.0848670 111.1272161 104.9982966  60.5855403 111.1376885 105.2075549
  66.8851807 124.9257265  94.8356872  67.0603563 124.4545309  95.6502494
  66.1984595 125.5523032  95.0638133  70.7768062 116.5485806  91.1557233
  70.1597232 115.8232634  91.0590285  70.3084550 117.3095166  90.8124307
  62.5666608 110.7671230  90.2778537  61.6896074 110.6460031  89.9140784
  63.0424361 109.9757309  90.0257426  54.0868748 115.5548390 100.3720044
  54.7739788 115.2410120  99.7841059  53.9316877 116.4589755 100.0987296
  58.8903470 110.4438587 104.8005068  58.8061659 109.8364256 104.0655478
  58.0686176 110.9347605 104.8014564  65.7530534 123.1197521  97.5241057
  64.9698056 123.6619201  97.6179282  66.4523279 123.6371500  97.9235299
  69.0627184 108.9292150 100.1675263  69.5595883 108.1762112  99.8476333
  68.2914165 108.9656467  99.6018472  70.1456965 117.6863837  97.7413686
  69.2113243 117.8065300  97.5718391  70.3233633 116.7836304  97.4773696
  65.6462153 111.0709533  99.8946947  65.2759940 110.5180573 100.5827853
  66.1421245 110.4667667  99.3421948  73.5329516 113.5281157  98.2763720
  73.9989968 114.3609148  98.2024023  73.9837016 113.0626138  98.9808979
  71.6005747 119.8724978  95.2749872  71.8765591 119.7581572  96.1843747
  70.7310246 119.4742463  95.2362046  71.5046179 105.8961744 102.3154622
  70.5909258 106.1265970 102.4836829  71.9339280 105.9800188 103.1668654
  68.5701977 123.0479514  96.1797735  69.0989743 122.5371968  95.5667897
  68.8330196 122.7322044  97.0443268  53.6636724 113.6348983 102.6437511
  53.7020824 113.1012574 103.4374629  53.1577017 113.1084189 102.0248488
  61.0427486 108.4813524 106.1400054  61.1068813 109.3428355 105.7277451
  60.9794607 107.8687525 105.4072412  57.2945302 112.3613085  95.7191443
  57.5898743 111.4523764  95.6658496  56.3933337 112.3400825  95.3972445
  60.8239549 110.4369082 101.7018991  60.1026134 111.0505050 101.5626465
  61.6132804 110.9726847 101.6235637  59.0233143 110.0427183  95.8430768
  58.6945849 109.1624562  95.6605874  59.3772514 109.9874852  96.7307157
  62.1374966 110.3300153  96.2106245  62.4771039 110.8586074  95.4884854
  62.5847087 110.6680559  96.9864812  64.8318407 108.7137204 105.6609314
  64.4915227 107.9145017 106.0629993  64.1257413 109.0138915 105.0886147
  65.4834879 105.7986516 104.1136637  66.3060948 105.3246994 103.9915527
  65.7272942 106.5777000 104.6135323  64.1243113 108.8274775  94.4099538
  64.8451476 109.2056027  93.9063255  63.5008418 109.5463651  94.5134516
  68.2674236 109.5319923  95.3457871  68.4837851 110.4144561  95.0446699
  67.7868303 109.1406137  94.6163513  63.0073458 112.4905637 101.9228615
  62.8618038 112.8045940 102.8152897  62.5298661 113.1090537 101.3699514
  64.8669841 109.4808185 101.9709505  64.8531409 108.5849278 101.6341803
  65.5842269 109.4878848 102.6047791  66.7195971 109.9145525 104.0162632
  66.4613749 110.8362596 104.0146963  66.1881012 109.5175959 104.7063096
  57.4819120 115.0310981 104.8616276  56.9372588 115.8070789 104.9936551
  58.3598470 115.3781786 104.7035398  64.2706737 108.3622565  97.2397075
  64.3922648 107.4339211  97.4387962  63.9808779 108.3761251  96.3275390
  67.1397927 106.0477475 100.3763795  67.1619624 106.1116809  99.4215774
  67.5565986 105.2081984 100.5704301  72.6517333 122.3363076  93.8949616
  73.3468237 122.9569769  94.1136930  72.9940483 121.4858428  94.1701994
  74.5508756 119.7862782  95.4236947  75.0760080 120.1250055  94.6986267
  74.4631108 118.8509797  95.2400081  58.7141755 122.0446306  99.7856828
  59.5399775 121.7450078  99.4055471  58.3635807 121.2753929 100.2346617
  56.9150360 119.9632633 100.7445761  56.0782269 119.5354807 100.5629763
  56.8874006 120.1565076 101.6816553  63.2436795 119.9476698  95.3312962
  63.3924916 120.6312162  94.6779635  64.0503239 119.9281788  95.8462418
  60.9989428 115.9741875  96.3374031  60.7535470 115.0704205  96.5354241
  61.1685343 115.9759026  95.3953509  68.6886138 106.8465552 105.7198787
  69.2068082 107.5826579 105.3945275  68.3341271 107.1529545 106.5545546
  60.2685076 111.7070233  93.8360192  59.5754321 111.7814588  93.1800228
  60.0236828 110.9430577  94.3581709  68.9398733 103.2665834 101.2399683
  69.2200486 102.5989023 101.8660110  69.7249339 103.4594930 100.7274347
  66.7432201 122.4424828  92.8024709  66.1706168 123.0615015  92.3495181
  67.3164995 122.9924190  93.3364631  69.9629461 122.7261978  93.9333292
  70.8960134 122.6607540  94.1366167  69.8752674 123.5618245  93.4747824
  72.5917477 122.0427849  90.8937239  72.5131109 121.7087712  91.7872997
  73.4127144 122.5349617  90.8928712  67.1279000 113.7785641  90.1440762
  68.0738104 113.6491849  90.2129180  66.7493244 113.0400303  90.6210190
  73.1000884 105.4441647 100.1067654  72.9025705 105.1356735 100.9910986
  73.7100590 106.1703286 100.2365584  65.3121917 111.7035617  90.0795647
  64.4053372 111.4068730  90.1558361  65.5897898 111.4065435  89.2129933
  56.2299857 113.0241981 100.5294694  55.9102641 112.1707289 100.2369068
  55.6833285 113.2390559 101.2852661  60.0079765 115.7404422 104.2464200
  60.2265774 116.6721529 104.2652234  60.4205538 115.3812396 105.0319004
  66.9283982 106.2472507  96.2339888  66.1184711 105.9019592  96.6095135
  67.6168399 105.9380051  96.8227500  68.8574531 105.3250554  97.8564185
  69.4105569 105.7446007  98.5154208  69.0944617 104.3986302  97.8987141
  64.0820701 108.5622552  90.2207626  64.9439865 108.8877451  90.4803444
  64.2671045 107.7754048  89.7080692  56.0988117 116.6444892 102.4987815
  55.4051588 116.2298845 101.9857770  56.8461108 116.6865429 101.9021234
  72.2353338 107.4351079  97.3642849  71.6552007 108.0935883  96.9820902
  71.9689270 106.6128424  96.9530267  70.6856904 106.8356137  99.5664170
  71.1856682 106.9472671  98.7578488  71.3292512 106.5317189 100.2064978
  58.0124860 116.5763146 100.3753830  57.9895548 116.6750833  99.4235713
  58.3225496 117.4228297 100.6970996  71.0178216 109.5951169  96.4199198
  70.1304071 109.8800820  96.2019392  71.4332205 109.4344933  95.5726474
  74.3692752 109.6197690 100.1353537  75.1453142 110.1094143 100.4078154
  73.6440886 110.0455744 100.5925406  76.8065311 110.3325310 101.1927477
  77.4009801 110.0921045 100.4820786  76.8791894 109.6132440 101.8201014
  70.1621429 119.3595844  90.5147218  70.8657279 119.5645846  91.1304873
  69.4384078 119.9272606  90.7796301  70.9919240 115.1105705  96.6349488
  70.9354441 115.5674257  95.7957120  71.5447582 114.3496390  96.4572331
  74.8024045 110.8995437  97.4599607  74.5460980 110.4992073  98.2907815
  74.1776913 111.6139231  97.3349746  72.0708127 119.7978373  92.5645678
  72.9053731 119.3659572  92.3823152  71.9092470 119.6260387  93.4922572
  71.7254019 116.3010487  93.9302017  71.6702823 116.1354758  92.9890461
  71.1000074 117.0086519  94.0864207  56.5146534 111.5378551 107.7563439
  57.1605397 111.0277505 108.2450664  56.3063685 112.2747233 108.3306864
  65.0350144 105.8018596  93.5087335  65.0228814 106.7460435  93.6655606
  65.9273566 105.6188741  93.2146797  68.8502264 102.3961372  97.7633272
  68.0834660 101.8419859  97.9089954  69.2612969 102.4683241  98.6247424
  73.5321982 126.2515920  93.0780630  72.6959294 126.5890607  93.3989905
  73.3926752 126.1164900  92.1407767  73.4060362 126.0963148  90.2778537
  72.5289829 125.9751949  89.9140784  73.8818115 125.3049226  90.0257426
  71.1078830 127.0362151  93.8360192  70.4148075 127.1106506  93.1800228
  70.8630582 126.2722494  94.3581709  76.1515671 127.0327535  90.0795647
  75.2447127 126.7360648  90.1558361  76.4291652 126.7357353  89.2129933
  74.9214456 123.8914470  90.2207626  75.7833620 124.2169368  90.4803444
  75.1064800 123.1045966  89.7080692  75.8743899 121.1310513  93.5087335
  75.8622569 122.0752353  93.6655606  76.7667321 120.9480659  93.2146797
  15.6629876  15.3458641  89.3846161  16.3008286  15.2265388  88.6809501
  15.5450719  16.2939485  89.4434113  12.4719582  15.2986069  89.3207686
  12.1338094  15.1827134  88.4328221  13.3409351  14.8977234  89.3008692
   8.3306398  17.1521545  85.3104577   7.7671263  17.0611482  84.5420864
   8.2158793  16.3321450  85.7907069  13.9105957  20.8192513  80.6219042
  13.2593937  21.4046593  80.2353055  14.7050320  21.3498708  80.6814079
   7.8361584  17.9081650  81.0206176   8.6092460  17.3610637  80.8819052
   8.1886983  18.7725900  81.2320637  10.1727862  14.0674316  78.6524626
  10.4253382  13.5455838  77.8908089   9.2352421  13.9040462  78.7551309
  15.2171145  13.0710095  86.4599369  16.0034234  12.6529518  86.1089786
  15.4809849  13.9756187  86.6281017  15.3881222  18.5082945  81.1588026
  14.7527055  18.5817572  81.8708931  15.0578628  19.0976544  80.4807105
  20.6179572  13.0085328  87.3632348  21.3504744  12.4384545  87.5970177
  19.8618927  12.6206928  87.8038853   9.8924150  15.9702422  80.8549001
   9.7760409  15.2947326  81.5230085  10.0026410  15.4834796  80.0381154
  12.2355691  15.4312569  84.5595690  11.8713899  14.9043190  85.2708611
  13.0922807  15.0411038  84.3862175  11.8761178  10.4602469  79.5557039
  12.0435581  11.3282705  79.9227510  11.6858347  10.6229751  78.6318328
  14.6336512  18.9219448  91.2222869  14.3337235  19.8244487  91.1138676
  14.2887571  18.6551631  92.0744022  18.0333655  11.4401988  88.9020306
  17.1250533  11.3717397  88.6079067  17.9821251  11.9173933  89.7302132
  11.8550399  12.9160127  80.5403705  11.7350024  13.3617177  81.3789186
  11.1602988  13.2645444  79.9817243   9.6157291  25.6863768  84.1893837
   9.5381321  26.6371593  84.2682317   9.0118935  25.3409641  84.8468763
  17.5535465  13.3881600  81.3684039  18.4653322  13.6208987  81.1931737
  17.0445112  13.9718644  80.8059118  16.1605048  18.3707418  88.7597621
  15.5313910  18.5353132  88.0573689  15.7730710  18.7849028  89.5308585
  20.0394280  19.3061856  86.1141985  19.3545318  19.6860757  85.5639018
  20.1238129  19.9157183  86.8473932  11.7133010  18.1081826  86.0247706
  12.1771355  18.3869529  85.2352328  11.4489808  17.2065271  85.8420797
  10.6501896  14.2304979  82.8337271  11.3525939  14.6826022  83.3011197
  10.3182524  13.5888798  83.4617164  18.4091039  19.8293771  90.8859685
  19.2308483  19.4273958  90.6042367  18.4053442  19.7262005  91.8375801
  26.4997032  16.1732519  87.2344657  25.7460741  15.6039917  87.0788661
  26.6344573  16.1395183  88.1815292  11.8895660  21.0445921  82.9099376
  11.7541335  21.8897457  83.3384224  12.4305473  21.2465199  82.1465310
   5.3425058  18.5621359  83.4827301   5.8549578  19.3564610  83.6332866
   5.9947771  17.8647650  83.4160903   7.1519942  21.6787116  85.5650055
   7.3286571  22.6005080  85.3771038   7.9476776  21.3645535  85.9944434
   8.2751258  23.1965289  91.5660397   8.8258683  23.0682353  90.7937391
   7.4362734  23.4960178  91.2155290  15.2038407  14.5585094  79.9470705
  14.6885030  15.3289699  80.1859092  14.9315715  13.8850230  80.5703766
  20.1772681  17.3117449  81.8823878  19.4002123  16.9728608  81.4379040
  20.8564162  17.3170072  81.2078843  14.9924710  12.4312186  81.7730486
  14.6874845  12.7458336  82.6240629  15.9455152  12.5093606  81.8157819
  13.4371142  18.5902410  83.4223440  12.9092503  17.8555169  83.1096678
  12.9358644  19.3677086  83.1763408  18.4163988  16.7851430  88.5390486
  17.7587662  17.4750692  88.6270615  19.2204387  17.1747862  88.8824473
  17.2269446  15.1395803  86.5894428  17.7401328  15.7725795  87.0916138
  17.8770670  14.5396998  86.2237788  11.5823742  16.4082620  76.4258413
  10.6750804  16.1771873  76.6249562  12.0794774  15.6120239  76.6132395
  14.4891821  25.1180127  79.3455099  13.8153519  25.4211824  79.9540057
  14.8757643  25.9209207  78.9960556  14.4885325  14.0136674  83.9655449
  15.2357144  14.5258071  83.6562571  14.7576915  13.6920727  84.8259842
  12.7611975  16.5095215  80.9482403  11.8523194  16.2254248  81.0454873
  12.7907059  16.9294293  80.0885710  17.9931243  20.1201804  84.7173571
  17.5393570  19.2792714  84.7738761  17.3625209  20.7563203  85.0548351
  16.9364162  11.0493790  85.9474238  16.1986919  10.5371177  86.2784481
  17.1890936  10.6094172  85.1357515  16.4364182  21.9578301  85.6523389
  16.7287156  22.5183358  84.9335755  16.9462802  22.2506862  86.4076548
  11.3096869  14.1223835  87.0492199  11.3645479  13.1697672  86.9734675
  10.4988071  14.2783275  87.5333497  12.4588063  18.0503959  78.2870482
  12.0207493  17.3339817  77.8276119  13.1998504  18.2780073  77.7255573
   9.2489229  12.7400895  84.8082577   8.4357095  13.0395066  85.2147770
   9.7448223  12.3456584  85.5257060  11.3997807  22.7358652  86.7416842
  11.3573986  22.9619498  85.8125374  12.3160506  22.5022027  86.8902643
  20.5761178  16.3261156  84.3446800  20.4379076  16.5162752  83.4167990
  20.2197397  17.0880538  84.8014851  20.6030557  18.3937683  89.3558072
  21.0367064  18.3012972  90.2041126  21.3162138  18.3695183  88.7178088
   9.5163608  19.6121681  86.5378805  10.3104206  19.1172001  86.3361380
   8.8055300  19.0839544  86.1746510  14.3358452  21.9939777  90.8891172
  14.3895475  22.5630713  91.6568888  13.4673234  22.1641662  90.5245210
  21.4646107  18.4361383  91.8890957  21.6581997  19.3407194  92.1350232
  21.3646725  17.9768802  92.7229542  12.0934884  20.1850703  90.2176642
  11.9545970  19.8169488  91.0902580  11.3049480  20.6998343  90.0460600
  12.6883036  25.2859800  81.5602178  12.8634791  24.8147843  82.3747801
  12.0015824  25.9125566  81.7883439  13.6440099  19.5632306  87.6065480
  13.3089932  19.5233076  88.5023130  13.1444045  18.8977022  87.1335890
  16.5799291  16.9088340  77.8802539  15.9628461  16.1835168  77.7835592
  16.1115779  17.6697700  77.5369614   7.2544121  28.4349162  88.3342039
   7.4940719  29.0667686  89.0121057   6.4113318  28.0837202  88.6207398
  11.7671983  24.2428285  90.7383543  11.6942154  25.0483256  91.2502847
  11.3249376  24.4420251  89.9131564  11.5561763  23.4800055  84.2486364
  10.7729284  24.0221735  84.3424589  12.2554508  23.9974034  84.6480605
  14.8658413   9.2894684  86.8920570  15.3627112   8.5364647  86.5721640
  14.0945394   9.3259001  86.3263779  22.7188170  14.9935050  88.5338861
  22.7078046  15.8759765  88.1632794  21.8505550  14.6406601  88.3393398
  14.2270666  24.1415119  92.8941701  14.9398639  24.7762584  92.8217603
  13.7360695  24.2378985  92.0781703  15.9488193  18.0466371  84.4658993
  15.0144472  18.1667834  84.2963697  16.1264862  17.1438838  84.2019003
  19.3360745  13.8883691  85.0009027  19.8021197  14.7211682  84.9269330
  19.7868245  13.4228672  85.7054286  17.4036976  20.2327512  81.9995179
  17.6796820  20.1184107  82.9089053  16.5341475  19.8344997  81.9607352
  14.0391040  24.4813863  85.6427993  14.2213434  23.6635519  86.1055745
  14.8624026  24.6981555  85.2052883  14.3733205  23.4082048  82.9043041
  14.9020972  22.8974503  82.2913203  14.6361425  23.0924578  83.7688574
   7.7288953  24.4597165  85.6640817   7.0599329  24.9443292  85.1804857
   7.5901823  24.7066385  86.5784196  11.8694222  26.4940908  92.2623475
  12.4212530  26.6572530  93.0272561  12.2100415  27.0845346  91.5903500
  15.0062609  24.4422884  89.2487158  14.8813749  23.6412624  88.7398103
  15.6641700  24.9369077  88.7601128  17.0697518  22.2431904  90.8766708
  16.1227853  22.1237255  90.8045034  17.4180291  21.3554402  90.9592969
  14.0743951  22.0384620  87.0771060  13.9268913  21.1101327  87.2578630
  14.8997444  22.0604711  86.5928135  17.6778073  22.8613179  88.1635933
  18.6024620  22.6556040  88.0260384  17.5093376  22.6129580  89.0725274
  14.0705465   9.8922458  82.0703177  14.2869080  10.7747096  81.7692005
  13.5899532   9.5008671  81.3408819  17.4673389  23.3798846  83.5198024
  17.6410266  22.8145269  82.7671877  17.9602280  24.1799741  83.3377514
  23.3212780  16.1435269  85.1388324  23.7643926  15.3942594  84.7407447
  22.4439290  16.1345406  84.7562056  18.4548561  22.6965611  80.6194922
  19.1499466  23.3172303  80.8382237  18.7971712  21.8460962  80.8947300
  20.3539984  20.1465316  82.1482253  20.8791309  20.4852589  81.4231573
  20.2662337  19.2112332  81.9645388  12.0380645  26.2137299  86.5077506
  11.5985636  25.7213678  87.2010363  12.7888762  25.6710267  86.2669582
   4.5172984  22.4048840  86.5102134   5.3431004  22.1052612  86.1300778
   4.1667036  21.6356463  86.9591923   9.4854517  21.7575309  88.5799808
   8.8634527  21.0946014  88.2802036  10.1559384  21.7836440  87.8973456
   2.7181589  20.3235167  87.4691068   1.8813498  19.8957341  87.2875069
   2.6905235  20.5167610  88.4061859   9.0468024  20.3079232  82.0558269
   9.1956145  20.9914696  81.4024941   9.8534468  20.2884322  82.5707724
  21.6649962  20.0487628  95.0108201  21.3734771  20.4117608  95.8471662
  21.0522094  19.3354636  94.8321533  22.8645645  17.6140507  87.5310771
  23.6992536  18.0530312  87.6948332  23.0004774  17.1379161  86.7119017
   6.8020657  16.3344410  83.0619338   6.5566699  15.4306740  83.2599548
   6.9716572  16.3361560  82.1198816  12.5463430  22.8027362  79.5270016
  11.9737397  23.4217549  79.0740488  13.1196223  23.3526724  80.0609938
  15.7660690  23.0864512  80.6578598  16.6991363  23.0210074  80.8611474
  15.6783902  23.9220779  80.1993131  18.3948706  22.4030383  77.6182546
  18.3162338  22.0690246  78.5118304  19.2158373  22.8952151  77.6174018
  21.0926897  15.2692122  90.8258864  21.0603218  14.3308123  91.0118548
  21.7027521  15.3476159  90.0924689  12.9310228  14.1388175  76.8686069
  13.8769333  14.0094383  76.9374487  12.5524473  13.4002837  77.3455497
  26.9103447  16.3308129  89.9664901  27.6406836  16.0693417  90.5272605
  26.3010393  15.5936851  90.0066969  24.9918744  14.4715992  90.5639352
  24.2651908  14.3371956  89.9555844  24.5766031  14.7792820  91.3696071
  11.1153145  12.0638151  76.8040954  10.2084601  11.7671264  76.8803667
  11.3929126  11.7667970  75.9375240  18.0384567   7.7953613  84.0888156
  17.4583236   8.4538417  83.7066208  17.7720499   6.9730958  83.6775573
  16.8209445   9.9553704  83.1444504  15.9335300  10.2403354  82.9264699
  17.2363434   9.7947467  82.2971781  20.1723981   9.9800225  86.8598843
  20.9484371  10.4696677  87.1323460  19.4472115  10.4058279  87.3170713
  22.6096539  10.6927844  87.9172784  23.2041030  10.4523580  87.2066092
  22.6823123   9.9734974  88.5446320   4.8293695  24.5361455  88.2315949
   4.6948163  23.7761856  87.6653947   4.4125757  25.2602355  87.7644738
  15.9652658  19.7198378  77.2392524  16.6688508  19.9248381  77.8550180
  15.2415307  20.2875140  77.5041608  16.7950468  15.4708239  83.3594794
  16.7385670  15.9276791  82.5202427  17.3478811  14.7098924  83.1817637
  20.6055274  11.2597971  84.1844914  20.3492208  10.8594607  85.0153122
  19.9808142  11.9741765  84.0595053  24.9167612  13.9994045  86.6916205
  24.3567170  14.0687234  87.4647767  24.3111115  13.8235029  85.9715702
   7.9862821  25.4330772  88.4434392   7.8695205  26.3776204  88.3413082
   7.1655267  25.1304333  88.8320191  17.8739355  20.1580907  79.2890984
  18.7084959  19.7262106  79.1068459  17.7123698  19.9862921  80.2167879
  17.5285248  16.6613021  80.6547324  17.4734051  16.4957292  79.7135768
  16.9031303  17.3689054  80.8109513   9.0117335  26.0859034  91.6590320
   9.9144582  26.1182644  91.9756815   8.7854705  25.1559485  91.6736656
  10.7670937  24.8390020  88.3200399   9.8166568  24.8391882  88.2064771
  11.0703423  24.0922755  87.8036433  26.5023631  30.6750559  89.3846161
  27.1402041  30.5557306  88.6809501  26.3844473  31.6231402  89.4434113
  23.3113337  30.6277987  89.3207686  22.9731848  30.5119051  88.4328221
  24.1803105  30.2269152  89.3008692  19.1700153  32.4813463  85.3104577
  18.6065018  32.3903400  84.5420864  19.0552548  31.6613367  85.7907069
  23.7933120  31.7812838  95.2793891  23.7821761  31.3865637  94.4074395
  23.9553759  31.0478911  95.8727663  16.7164584  33.9764655  88.1488797
  17.5085876  33.6355479  87.7335096  16.9561235  34.0859630  89.0690950
  24.7499711  36.1484431  80.6219042  24.0987691  36.7338511  80.2353055
  25.5444074  36.6790626  80.6814079  18.6755338  33.2373568  81.0206176
  19.4486214  32.6902555  80.8819052  19.0280737  34.1017817  81.2320637
  20.5140381  34.5649950  94.2273075  20.2230247  35.4695581  94.1119742
  21.1497365  34.6066478  94.9417145  21.4396588  31.9426799  90.8174435
  22.0360160  31.7182821  90.1031398  21.4971559  31.2011544  91.4199883
  21.0121616  29.3966234  78.6524626  21.2647137  28.8747755  77.8908089
  20.0746175  29.2332379  78.7551309  26.0564899  28.4002012  86.4599369
  26.8427988  27.9821436  86.1089786  26.3203603  29.3048105  86.6281017
  26.2274976  33.8374863  81.1588026  25.5920809  33.9109489  81.8708931
  25.8972383  34.4268462  80.4807105  31.4573326  28.3377246  87.3632348
  32.1898498  27.7676462  87.5970177  30.7012682  27.9498846  87.8038853
  20.7317905  31.2994340  80.8549001  20.6154163  30.6239243  81.5230085
  20.8420165  30.8126714  80.0381154  23.0749446  30.7604487  84.5595690
  22.7107653  30.2335108  85.2708611  23.9316562  30.3702956  84.3862175
  28.9798747  22.0498820  91.8226956  28.6482071  22.9194231  91.5988171
  28.3844360  21.7335104  92.5020987  22.7154933  25.7894387  79.5557039
  22.8829335  26.6574623  79.9227510  22.5252102  25.9521668  78.6318328
  25.4730266  34.2511366  91.2222869  25.1730989  35.1536404  91.1138676
  25.1281326  33.9843549  92.0744022  18.9242748  30.7025163  87.2559573
  17.9993244  30.5701377  87.4637265  19.1727161  31.4819382  87.7529516
  28.8727410  26.7693906  88.9020306  27.9644287  26.7009314  88.6079067
  28.8215006  27.2465851  89.7302132  22.6944154  28.2452044  80.5403705
  22.5743779  28.6909095  81.3789186  21.9996742  28.5937362  79.9817243
  16.2851559  30.3458436  88.0903362  16.4143940  30.5992915  89.0042774
  15.6049010  30.9386144  87.7708017  20.4551046  41.0155686  84.1893837
  20.3775076  41.9663511  84.2682317  19.8512689  40.6701559  84.8468763
  22.9468276  28.1883551  96.8455203  22.1701610  28.7477472  96.8358068
  23.5858839  28.6740334  97.3670074  30.7389056  24.9710344  90.6798180
  30.0963436  25.2642877  90.0337975  30.2343985  24.8563265  91.4851377
  28.3929220  28.7173517  81.3684039  29.3047076  28.9500904  81.1931737
  27.8838867  29.3010562  80.8059118  21.2014648  30.9969005  96.4073170
  21.9429332  31.5354049  96.1307994  20.4951633  31.6235294  96.5644722
  26.6769988  33.1398145  95.0045332  27.0853344  32.6980556  94.2599964
  25.9547249  32.5650773  95.2579525  23.0301058  28.0770752  92.3778889
  23.8762253  28.5010166  92.5213538  22.9699695  27.4204376  93.0717452
  26.9998802  33.6999336  88.7597621  26.3707665  33.8645050  88.0573689
  26.6124464  34.1140945  89.5308585  30.8788034  34.6353774  86.1141985
  30.1939072  35.0152675  85.5639018  30.9631883  35.2449100  86.8473932
  26.1800503  25.7375120  94.0360063  25.9361435  26.4917181  93.4994338
  26.4560433  26.1160468  94.8707310  28.1338966  32.2813733  92.7137328
  28.3455861  32.9245493  92.0371709  28.0868714  31.4476049  92.2459258
  25.7365195  24.8931553  89.6173900  24.8749674  25.1912807  89.9090638
  25.7627629  25.1101952  88.6854933  22.5526764  33.4373744  86.0247706
  23.0165110  33.7161447  85.2352328  22.2883562  32.5357189  85.8420797
  19.4450845  32.9845226  88.9627469  20.0152202  33.4132494  88.3244954
  20.0358957  32.7027810  89.6611655  21.4895650  29.5596896  82.8337271
  22.1919693  30.0117940  83.3011197  21.1576279  28.9180715  83.4617164
  19.9376012  28.1508653  97.2088480  19.3074672  28.8324934  97.4423877
  19.8312100  28.0391735  96.2641619  15.2320984  27.8180449  88.1354405
  14.4420038  28.0737978  87.6594515  15.7232231  28.6328787  88.2406445
  29.2484794  35.1585688  90.8859685  30.0702237  34.7565875  90.6042367
  29.2447197  35.0553922  91.8375801  17.1835729  28.1825028  85.0937881
  16.3866893  28.2943723  85.6121377  16.9561322  28.5211680  84.2278772
  23.0141397  34.7069731  93.0420396  23.0785830  35.1690139  93.8778568
  22.3052321  34.0767096  93.1702706  13.5158687  28.0710939  90.5669395
  13.7666726  28.9557949  90.8326971  14.0518235  27.8915541  89.7944487
  37.3390787  31.5024437  87.2344657  36.5854495  30.9331835  87.0788661
  37.4738328  31.4687101  88.1815292  22.7289415  36.3737839  82.9099376
  22.5935090  37.2189375  83.3384224  23.2699227  36.5757117  82.1465310
  16.1818812  33.8913277  83.4827301  16.6943333  34.6856527  83.6332866
  16.8341525  33.1939567  83.4160903  17.9913697  37.0079033  85.5650055
  18.1680325  37.9296998  85.3771038  18.7870530  36.6937453  85.9944434
  22.1324715  23.8687298  97.1633988  22.8734429  24.4694451  97.0838451
  22.3642638  23.1264936  96.6052031  17.2766053  29.0543665  95.4412218
  17.1619569  28.1528922  95.7419317  16.4210571  29.3007362  95.0897034
  24.3557891  36.9961405  97.0399718  23.9121745  36.2097784  96.7220623
  25.0175105  37.1840556  96.3743609  19.1145012  38.5257207  91.5660397
  19.6652437  38.3974270  90.7937391  18.2756488  38.8252096  91.2155290
  26.4539129  37.2764205  95.0681120  26.4357605  38.0973086  94.5761389
  27.3759049  37.1518281  95.2931261  22.9112183  34.7908335  95.9104628
  23.4440520  34.0296623  95.6803936  22.3826264  34.4981987  96.6528783
  26.0781878  19.8968401  91.4398270  25.7346148  20.7870043  91.3637380
  26.4460841  19.7070058  90.5767855  14.1467729  32.2201931  84.2586872
  14.9842951  32.6298940  84.0420580  14.3245997  31.2801373  84.2287066
  26.0432161  29.8877012  79.9470705  25.5278784  30.6581617  80.1859092
  25.7709470  29.2142148  80.5703766  23.6279272  24.7326713  85.0055943
  22.7720868  24.3433563  84.8261582  24.0406224  24.8118674  84.1455729
  25.1578419  22.2673056  89.4047503  24.6543214  22.2303191  88.5915308
  25.4509026  23.1765799  89.4644160  21.4021305  22.3511786  88.4113685
  22.2674301  22.1554594  88.0519574  21.4698814  22.1222138  89.3383042
  31.0166435  32.6409367  81.8823878  30.2395878  32.3020526  81.4379040
  31.6957916  32.6461990  81.2078843  25.8318464  27.7604104  81.7730486
  25.5268600  28.0750253  82.6240629  26.7848906  27.8385524  81.8157819
  24.2764896  33.9194327  83.4223440  23.7486258  33.1847087  83.1096678
  23.7752399  34.6969004  83.1763408  29.2557742  32.1143348  88.5390486
  28.5981417  32.8042609  88.6270615  30.0598141  32.5039780  88.8824473
  19.0083624  24.5813994  85.7830052  19.5827376  24.3589175  85.0503245
  19.5954606  24.6502688  86.5358653  28.0663201  30.4687721  86.5894428
  28.5795083  31.1017712  87.0916138  28.7164425  29.8688916  86.2237788
  19.3353211  26.6118455  79.8025937  18.4990523  26.9493141  80.1235212
  19.1957980  26.4767434  78.8653074  21.3106291  21.4555243  84.5105121
  20.6570704  21.1404260  83.8861736  21.2686766  20.8330983  85.2364944
  22.4217496  31.7374538  76.4258413  21.5144558  31.5063791  76.6249562
  22.9188528  30.9412157  76.6132395  25.3285575  40.4472045  79.3455099
  24.6547274  40.7503742  79.9540057  25.7151397  41.2501125  78.9960556
  24.5444032  27.9437176  88.8352769  23.6266593  28.1652123  88.6774457
  24.9604175  28.0183487  87.9764476  25.3279080  29.3428592  83.9655449
  26.0750898  29.8549989  83.6562571  25.5970669  29.0212645  84.8259842
  23.6005730  31.8387133  80.9482403  22.6916949  31.5546165  81.0454873
  23.6300814  32.2586211  80.0885710  28.8324997  35.4493722  84.7173571
  28.3787324  34.6084632  84.7738761  28.2018964  36.0855120  85.0548351
  27.7757917  26.3785708  85.9474238  27.0380673  25.8663094  86.2784481
  28.0284690  25.9386090  85.1357515  27.2757936  37.2870219  85.6523389
  27.5680911  37.8475276  84.9335755  27.7856557  37.5798780  86.4076548
  27.8769544  19.1561960  86.5416007  28.1828421  18.2959323  86.2541923
  28.6022149  19.7479580  86.3415001  14.1693900  29.5592647  84.9297605
  13.9718300  28.9662007  84.2048672  13.6140564  29.2544857  85.6473544
  22.1490624  29.4515753  87.0492199  22.2039234  28.4989590  86.9734675
  21.3381826  29.6075192  87.5333497  23.2981818  33.3795876  78.2870482
  22.8601247  32.6631735  77.8276119  24.0392258  33.6071991  77.7255573
  20.0882984  28.0692813  84.8082577  19.2750849  28.3686983  85.2147770
  20.5841978  27.6748502  85.5257060  22.2391562  38.0650570  86.7416842
  22.1967740  38.2911416  85.8125374  23.1554260  37.8313944  86.8902643
  25.6857195  28.5334637  93.6397471  26.0406583  28.7606110  94.4991937
  26.3329327  28.8653014  93.0174727  31.4154932  31.6553073  84.3446800
  31.2772831  31.8454669  83.4167990  31.0591151  32.4172456  84.8014851
  19.5797058  25.6411168  90.4243812  20.2196438  25.4999927  89.7266776
  18.7474589  25.3545682  90.0482414  31.4424312  33.7229600  89.3558072
  31.8760819  33.6304889  90.2041126  32.1555893  33.6987101  88.7178088
  20.3557362  34.9413599  86.5378805  21.1497961  34.4463919  86.3361380
  19.6449055  34.4131462  86.1746510  25.1752207  37.3231694  90.8891172
  25.2289229  37.8922631  91.6568888  24.3066988  37.4933579  90.5245210
  16.6640126  29.0856681  82.6138557  15.7337714  29.0241136  82.8308520
  16.7597598  28.5632633  81.8175199  16.5825675  25.6111493  85.2016799
  16.8432492  26.5256827  85.0925960  17.4042847  25.1435936  85.3513412
  18.0550600  27.0249251  92.3715624  18.7273654  26.8166613  91.7228273
  17.2280387  26.8271337  91.9320856  32.3039861  33.7653301  91.8890957
  32.4975752  34.6699111  92.1350232  32.2040480  33.3060720  92.7229542
  23.9576172  23.6511191  94.3881285  23.3104087  24.3501141  94.2945761
  24.7277188  24.0847335  94.7557533  27.3654970  33.9160044  97.4631838
  27.2140477  33.6870595  96.5461922  27.3559650  34.8730645  97.4763183
  24.1340307  31.4891956  92.4478104  25.0632367  31.6403116  92.2747072
  23.7131337  31.5775977  91.5926751  22.9328638  35.5142621  90.2176642
  22.7939724  35.1461405  91.0902580  22.1443235  36.0290260  90.0460600
  23.5276790  40.6151717  81.5602178  23.7028546  40.1439760  82.3747801
  22.8409578  41.2417483  81.7883439  24.4833853  34.8924223  87.6065480
  24.1483686  34.8524993  88.5023130  23.9837799  34.2268939  87.1335890
  18.4578097  30.2991854  93.1318061  18.3197895  29.5672092  93.7329600
  19.3683021  30.2100754  92.8502249  27.4193045  32.2380258  77.8802539
  26.8022216  31.5127086  77.7835592  26.9509534  32.9989618  77.5369614
  21.0860398  30.0111813  92.6201741  21.7960017  29.3705005  92.5788359
  21.0429706  30.2624708  93.5427921  29.0747177  36.9479166  95.5408320
  29.0159723  36.2638386  94.8738903  29.4766695  37.6898156  95.0888946
  19.7989332  26.9977031  94.4397380  19.2626689  26.5467769  95.0918976
  19.2106041  27.1322940  93.6967844  18.0937876  43.7641080  88.3342039
  18.3334474  44.3959604  89.0121057  17.2507072  43.4129120  88.6207398
  19.2091591  26.4565682  77.0023844  18.3321057  26.3354483  76.6386090
  19.6849344  25.6651760  76.7502732  29.0764584  34.9118750  93.7722299
  28.1891363  34.5744672  93.8948698  29.6463135  34.1801781  94.0091065
  10.7293731  31.2442842  87.0965351  11.4164771  30.9304572  86.5086366
  10.5741860  32.1484206  86.8232602  15.5328453  26.1333038  91.5250374
  15.4486642  25.5258708  90.7900784  14.7111160  26.6242057  91.5259871
  22.6065737  39.5720202  90.7383543  22.5335909  40.3775174  91.2502847
  22.1643131  39.7712168  89.9131564  22.3955517  38.8091972  84.2486364
  21.6123039  39.3513653  84.3424589  23.0948262  39.3265952  84.6480605
  25.7052167  24.6186602  86.8920570  26.2020867  23.8656564  86.5721640
  24.9339149  24.6550919  86.3263779  33.5581925  30.3226967  88.5338861
  33.5471801  31.2051683  88.1632794  32.6899304  29.9698518  88.3393398
  25.0664421  39.4707036  92.8941701  25.7792393  40.1054501  92.8217603
  24.5754450  39.5670902  92.0781703  26.7881948  33.3758289  84.4658993
  25.8538227  33.4959752  84.2963697  26.9658616  32.4730756  84.2019003
  22.2887136  26.7603985  86.6192254  21.9184923  26.2075025  87.3073160
  22.7846228  26.1562118  86.0667254  30.1754499  29.2175608  85.0009027
  30.6414951  30.0503600  84.9269330  30.6262000  28.7520590  85.7054286
  20.1176334  37.2201480  93.7147272  20.8185794  37.8537963  93.8676666
  19.6471449  37.5616211  92.9542911  28.2430730  35.5619430  81.9995179
  28.5190574  35.4476024  82.9089053  27.3735229  35.1636915  81.9607352
  28.1471162  21.5856195  89.0399928  27.2334242  21.8160422  89.2082135
  28.5764263  21.6694640  89.8913961  27.9177620  29.7746087  91.5399822
  27.2649071  30.0221995  90.8852275  28.2958000  28.9610226  91.2062300
  24.8784794  39.8105781  85.6427993  25.0607189  38.9927437  86.1055745
  25.7017780  40.0273473  85.2052883  25.2126960  38.7373966  82.9043041
  25.7414726  38.2266420  82.2913203  25.4755179  38.4216496  83.7688574
  23.9665193  30.5165898  98.0265860  23.2905830  30.4160028  98.6968235
  24.7892827  30.3605112  98.4901857  15.7144053  36.7537835  90.6478375
  16.2997489  36.0081523  90.7806279  15.5168891  37.0641792  91.5315039
  18.5682708  39.7889082  85.6640817  17.8993083  40.2735210  85.1804857
  18.4295577  40.0358303  86.5784196  10.3061707  29.3243435  89.3682818
  10.3445807  28.7907026  90.1619936   9.8002000  28.7978641  88.7493795
  22.7087976  41.8232826  92.2623475  23.2606284  41.9864447  93.0272561
  23.0494170  42.4137264  91.5903500  17.6852470  24.1707976  92.8645360
  17.7493796  25.0322807  92.4522758  17.6219590  23.5581977  92.1317719
  17.1604742  26.2431108  96.5118394  17.7876781  25.8608186  97.1255919
  16.3032661  26.0245310  96.8774087  27.5598851  36.6494083  98.1172130
  28.1038755  37.2624042  97.6227085  26.9785696  37.2073662  98.6339143
  13.9370285  28.0507537  82.4436749  14.2323726  27.1418216  82.3903803
  13.0358321  28.0295277  82.1217752  25.8456364  39.7714801  89.2487158
  25.7207503  38.9704541  88.7398103  26.5035455  40.2660995  88.7601128
  17.4664532  26.1263534  88.4264298  16.7451118  26.7399502  88.2871771
  18.2557788  26.6621299  88.3480944  27.9091272  37.5723822  90.8766708
  26.9621608  37.4529173  90.8045034  28.2574045  36.6846320  90.9592969
  20.2690845  23.4617960  94.7004950  20.7925247  23.7080257  95.4631259
  20.0503179  24.2937995  94.2808087  15.6658126  25.7321635  82.5676074
  15.3370833  24.8519014  82.3851180  16.0197497  25.6769304  83.4552464
  24.9137705  37.3676538  87.0771060  24.7662668  36.4393245  87.2578630
  25.7391199  37.3896628  86.5928135  18.7799950  26.0194605  82.9351552
  19.1196022  26.5480526  82.2130160  19.2272070  26.3575011  83.7110119
  28.5171827  38.1905096  88.1635933  29.4418375  37.9847958  88.0260384
  28.3487131  37.9421498  89.0725274  21.4743390  24.4031656  92.3854620
  21.1340211  23.6039469  92.7875300  20.7682397  24.7033366  91.8131453
  22.1259862  21.4880968  90.8381943  22.9485932  21.0141446  90.7160834
  22.3697926  22.2671452  91.3380629  20.7668097  24.5169226  81.1344845
  21.4876459  24.8950479  80.6308562  20.1433401  25.2358103  81.2379823
  24.9099220  25.2214375  82.0703177  25.1262834  26.1039013  81.7692005
  24.4293287  24.8300589  81.3408819  19.6498441  28.1800089  88.6473922
  19.5043022  28.4940392  89.5398203  19.1723645  28.7984989  88.0944820
  21.5094824  25.1702637  88.6954811  21.4956393  24.2743730  88.3587109
  22.2267252  25.1773300  89.3293097  23.3620955  25.6039977  90.7407939
  23.1038732  26.5257047  90.7392269  22.8305995  25.2070411  91.4308403
  28.3067143  38.7090764  83.5198024  28.4804021  38.1437186  82.7671877
  28.7996035  39.5091659  83.3377514  14.1244103  30.7205433  91.5861583
  13.5797571  31.4965241  91.7181857  15.0023453  31.0676237  91.4280704
  20.9131720  24.0517017  83.9642381  21.0347631  23.1233663  84.1633269
  20.6233762  24.0655703  83.0520697  23.7822910  21.7371927  87.1009101
  23.8044607  21.8011260  86.1461081  24.1990969  20.8976436  87.2949608
  34.1606535  31.4727187  85.1388324  34.6037681  30.7234512  84.7407447
  33.2833045  31.4637323  84.7562056  29.2942316  38.0257528  80.6194922
  29.9893220  38.6464221  80.8382237  29.6365466  37.1752880  80.8947300
  14.9110125  29.8475329  94.4791740  14.1691861  29.9957965  95.0656370
  14.5902869  30.1083595  93.6158489  31.1933739  35.4757234  82.1482253
  31.7185063  35.8144507  81.4231573  31.1056092  34.5404249  81.9645388
  22.8553788  39.3891308  94.2772130  23.1640914  39.1440454  95.1494829
  23.6529270  39.5937946  93.7891000  22.8774400  41.5429217  86.5077506
  22.4379390  41.0505596  87.2010363  23.6282517  41.0002185  86.2669582
  15.3566739  37.7340758  86.5102134  16.1824759  37.4344530  86.1300778
  15.0060791  36.9648380  86.9591923  20.3248272  37.0867226  88.5799808
  19.7028281  36.4237931  88.2802036  20.9953139  37.1128358  87.8973456
  13.5575344  35.6527084  87.4691068  12.7207252  35.2249259  87.2875069
  13.5298989  35.8459528  88.4061859  20.3972799  25.5649014  98.1732314
  20.4460955  26.4411137  97.7910084  20.9395314  25.0226407  97.6003957
  30.8827645  36.1090137  97.4533451  30.0923189  36.0914276  96.9137951
  30.6461000  36.6478431  98.2082488  31.0025520  32.9582604  94.7666180
  31.0523525  32.7932611  95.7081703  30.8939443  32.0909863  94.3764060
  19.8861779  35.6371150  82.0558269  20.0349899  36.3206614  81.4024941
  20.6928222  35.6176240  82.5707724  28.2929282  28.9413532  96.0825486
  29.1939145  28.8019997  95.7909484  28.3677257  29.1067987  97.0223664
  22.6272088  26.3180387  94.9278673  21.7575397  26.6113953  94.6561261
  22.8631568  26.9020832  95.6485936  32.5043717  35.3779545  95.0108201
  32.2128525  35.7409526  95.8471662  31.8915848  34.6646554  94.8321533
  33.7039399  32.9432425  87.5310771  34.5386291  33.3822229  87.6948332
  33.8398528  32.4671078  86.7119017  30.7530905  30.5012160  93.4788259
  31.2285027  30.6939806  92.6707111  29.8296471  30.5571346  93.2331643
  17.6414412  31.6636327  83.0619338  17.3960454  30.7598657  83.2599548
  17.8110326  31.6653478  82.1198816  25.3311122  22.5360004  92.4444093
  25.8493066  23.2721031  92.1190582  24.9766254  22.8423997  93.2790852
  16.9110059  27.3964685  80.5605499  16.2179304  27.4709040  79.9045535
  16.6661811  26.6325028  81.0827016  25.5823716  18.9560286  87.9644990
  25.8625470  18.2883475  88.5905416  26.3674323  19.1489382  87.4519654
  23.3857184  38.1319280  79.5270016  22.8131151  38.7509467  79.0740488
  23.9589978  38.6818642  80.0609938  29.4532574  27.3777920  91.7116565
  30.4049997  27.4776018  91.7328789  29.2836025  26.5856189  92.2214649
  27.4746954  24.4633503  91.8975966  26.8796886  24.7438516  91.2022454
  27.1896650  24.9527404  92.6692707  26.6054444  38.4156430  80.6578598
  27.5385117  38.3501992  80.8611474  26.5177657  39.2512697  80.1993131
  29.2342461  37.7322300  77.6182546  29.1556092  37.3982164  78.5118304
  30.0552128  38.2244068  77.6174018  31.9320652  30.5984040  90.8258864
  31.8996972  29.6600041  91.0118548  32.5421276  30.6768077  90.0924689
  23.7703983  29.4680093  76.8686069  24.7163088  29.3386301  76.9374487
  23.3918228  28.7294755  77.3455497  32.0815140  27.3895083  90.8717148
  31.5654189  26.6053540  90.6847077  32.9655089  27.0613800  91.0363667
  29.7425867  21.1336099  86.8312960  29.5450688  20.8251187  87.7156292
  30.3525573  21.8597738  86.9610890  37.7497202  31.6600047  89.9664901
  38.4800590  31.3985335  90.5272605  37.1404147  30.9228769  90.0066969
  35.8312499  29.8007909  90.5639352  35.1045663  29.6663874  89.9555844
  35.4159786  30.1084738  91.3696071  23.6542675  33.5197839  98.3286726
  24.5745685  33.6976438  98.5226772  23.6192258  32.5753884  98.1766425
  21.9546900  27.3930069  76.8040954  21.0478355  27.0963182  76.8803667
  22.2322881  27.0959887  75.9375240  12.8724840  28.7136433  87.2540000
  12.5527625  27.8601741  86.9614374  12.3258269  28.9285011  88.0097967
  16.6504748  31.4298874  90.9709507  16.8690758  32.3615981  90.9897540
  17.0630522  31.0706848  91.7564311  23.5708966  21.9366959  82.9585195
  22.7609694  21.5914044  83.3340441  24.2593383  21.6274503  83.5472807
  25.4999514  21.0145006  84.5809492  26.0530553  21.4340459  85.2399515
  25.7369600  20.0880754  84.6232448  20.7245685  24.2517004  76.9452933
  21.5864849  24.5771903  77.2048750  20.9096029  23.4648500  76.4325999
  12.7413100  32.3339344  89.2233122  12.0476572  31.9193297  88.7103076
  13.4886091  32.3759881  88.6266541  28.8778321  23.1245531  84.0888156
  28.2976990  23.7830335  83.7066208  28.6114254  22.3022875  83.6775573
  27.3281887  22.5250589  86.2909476  27.8281666  22.6367123  85.4823795
  27.9717495  22.2211641  86.9310285  21.3863883  30.4329218  99.1777317
  20.9030965  31.2329578  99.3841206  21.4724822  30.4437163  98.2244761
  14.6549843  32.2657598  87.0999137  14.6320531  32.3645285  86.1481020
  14.9650479  33.1122749  87.4216303  17.3137221  34.3233753  91.2145751
  18.2680474  34.2917695  91.1475683  17.1149744  33.8624377  92.0295977
  17.9036603  32.8934869  93.7816549  18.7229492  33.3878948  93.8051386
  18.1773411  31.9766837  93.7534116  27.6603199  25.2845621  83.1444504
  26.7729054  25.5695272  82.9264699  28.0757188  25.1239385  82.2971781
  31.0117735  25.3092142  86.8598843  31.7878125  25.7988595  87.1323460
  30.2865869  25.7350196  87.3170713  33.4490294  26.0219761  87.9172784
  34.0434785  25.7815497  87.2066092  33.5216878  25.3026892  88.5446320
  15.6687450  39.8653372  88.2315949  15.5341917  39.1053773  87.6653947
  15.2519512  40.5894272  87.7644738  26.8046413  35.0490296  77.2392524
  27.5082263  35.2540298  77.8550180  26.0809061  35.6167058  77.5041608
  27.6344223  30.8000157  83.3594794  27.5779424  31.2568709  82.5202427
  28.1872565  30.0390842  83.1817637  31.4449029  26.5889889  84.1844914
  31.1885963  26.1886525  85.0153122  30.8201897  27.3033683  84.0595053
  35.7561367  29.3285962  86.6916205  35.1960925  29.3979152  87.4647767
  35.1504870  29.1526947  85.9715702  18.8256575  40.7622689  88.4434392
  18.7088960  41.7068122  88.3413082  18.0049022  40.4596251  88.8320191
  28.7133110  35.4872825  79.2890984  29.5478714  35.0554024  79.1068459
  28.5517453  35.3154839  80.2167879  28.3679002  31.9904938  80.6547324
  28.3127806  31.8249210  79.7135768  27.7425057  32.6980971  80.8109513
  13.1571517  27.2273003  94.4808746  13.8030381  26.7171957  94.9695971
  12.9488668  27.9641684  95.0552171  25.6824909  34.2953850  99.9800886
  26.5516069  34.4694503  99.6187521  25.2031661  35.1148267  99.8576616
  21.6775128  21.4913047  80.2332642  21.6653797  22.4354887  80.3900913
  22.5698549  21.3083193  79.9392103  19.8511090  41.4150951  91.6590320
  20.7538336  41.4474562  91.9756815  19.6248460  40.4851402  91.6736656
  21.6064692  40.1681938  88.3200399  20.6560323  40.1683799  88.2064771
  21.9097178  39.4214672  87.8036433  25.4927247  18.0855824  84.4878579
  24.7259643  17.5314311  84.6335261  25.9037952  18.1577693  85.3492730
  37.3417385  46.0042476  89.3846161  37.9795795  45.8849224  88.6809501
  37.2238228  46.9523320  89.4434113  34.1507091  45.9569904  89.3207686
  33.8125603  45.8410969  88.4328221  35.0196860  45.5561069  89.3008692
  30.0093907  47.8105381  85.3104577  29.4458772  47.7195318  84.5420864
  29.8946302  46.9905285  85.7907069  34.6326874  47.1104756  95.2793891
  34.6215515  46.7157554  94.4074395  34.7947514  46.3770829  95.8727663
  27.5558339  49.3056572  88.1488797  28.3479631  48.9647397  87.7335096
  27.7954989  49.4151547  89.0690950  29.5149093  48.5665486  81.0206176
  30.2879969  48.0194473  80.8819052  29.8674492  49.4309735  81.2320637
  31.3534135  49.8941868  94.2273075  31.0624001  50.7987499  94.1119742
  31.9891120  49.9358395  94.9417145  32.2790342  47.2718716  90.8174435
  32.8753915  47.0474739  90.1031398  32.3365314  46.5303462  91.4199883
  31.8515371  44.7258152  78.6524626  32.1040891  44.2039673  77.8908089
  30.9139930  44.5624297  78.7551309  36.8958654  43.7293930  86.4599369
  37.6821743  43.3113353  86.1089786  37.1597358  44.6340022  86.6281017
  42.2967081  43.6669163  87.3632348  43.0292253  43.0968380  87.5970177
  41.5406436  43.2790764  87.8038853  31.5711659  46.6286258  80.8549001
  31.4547918  45.9531161  81.5230085  31.6813919  46.1418632  80.0381154
  33.9143200  46.0896405  84.5595690  33.5501408  45.5627026  85.2708611
  34.7710316  45.6994874  84.3862175  39.8192501  37.3790737  91.8226956
  39.4875826  38.2486148  91.5988171  39.2238114  37.0627021  92.5020987
  33.5548687  41.1186304  79.5557039  33.7223090  41.9866541  79.9227510
  33.3645856  41.2813586  78.6318328  36.3124021  49.5803283  91.2222869
  36.0124744  50.4828322  91.1138676  35.9675080  49.3135467  92.0744022
  29.7636502  46.0317080  87.2559573  28.8386999  45.8993294  87.4637265
  30.0120915  46.8111299  87.7529516  39.7121164  42.0985824  88.9020306
  38.8038042  42.0301232  88.6079067  39.6608760  42.5757768  89.7302132
  33.5337908  43.5743962  80.5403705  33.4137533  44.0201013  81.3789186
  32.8390497  43.9229280  79.9817243  27.1245313  45.6750354  88.0903362
  27.2537694  45.9284833  89.0042774  26.4442764  46.2678062  87.7708017
  31.2944800  56.3447604  84.1893837  31.2168830  57.2955429  84.2682317
  30.6906444  55.9993476  84.8468763  33.7862030  43.5175469  96.8455203
  33.0095364  44.0769389  96.8358068  34.4252593  44.0032252  97.3670074
  41.5782811  40.3002262  90.6798180  40.9357191  40.5934795  90.0337975
  41.0737739  40.1855182  91.4851377  39.2322974  44.0465435  81.3684039
  40.1440831  44.2792822  81.1931737  38.7232621  44.6302479  80.8059118
  32.0408402  46.3260922  96.4073170  32.7823087  46.8645966  96.1307994
  31.3345388  46.9527211  96.5644722  37.5163742  48.4690063  95.0045332
  37.9247098  48.0272473  94.2599964  36.7941004  47.8942690  95.2579525
  33.8694812  43.4062670  92.3778889  34.7156007  43.8302083  92.5213538
  33.8093450  42.7496294  93.0717452  37.8392557  49.0291254  88.7597621
  37.2101419  49.1936968  88.0573689  37.4518219  49.4432863  89.5308585
  41.7181789  49.9645691  86.1141985  41.0332827  50.3444593  85.5639018
  41.8025638  50.5741018  86.8473932  37.0194257  41.0667038  94.0360063
  36.7755189  41.8209099  93.4994338  37.2954188  41.4452386  94.8707310
  38.9732720  47.6105650  92.7137328  39.1849615  48.2537410  92.0371709
  38.9262468  46.7767967  92.2459258  36.5758949  40.2223471  89.6173900
  35.7143428  40.5204725  89.9090638  36.6021384  40.4393870  88.6854933
  33.3920519  48.7665662  86.0247706  33.8558864  49.0453365  85.2352328
  33.1277317  47.8649106  85.8420797  30.2844600  48.3137143  88.9627469
  30.8545957  48.7424412  88.3244954  30.8752711  48.0319728  89.6611655
  32.3289405  44.8888814  82.8337271  33.0313448  45.3409858  83.3011197
  31.9970033  44.2472633  83.4617164  30.7769766  43.4800571  97.2088480
  30.1468427  44.1616852  97.4423877  30.6705854  43.3683652  96.2641619
  26.0714739  43.1472367  88.1354405  25.2813793  43.4029895  87.6594515
  26.5625986  43.9620705  88.2406445  40.0878548  50.4877606  90.8859685
  40.9095992  50.0857793  90.6042367  40.0840951  50.3845840  91.8375801
  28.0229484  43.5116946  85.0937881  27.2260647  43.6235640  85.6121377
  27.7955076  43.8503598  84.2278772  33.8535152  50.0361649  93.0420396
  33.9179584  50.4982056  93.8778568  33.1446075  49.4059014  93.1702706
  24.3552442  43.4002857  90.5669395  24.6060480  44.2849867  90.8326971
  24.8911990  43.2207459  89.7944487  48.1784541  46.8316354  87.2344657
  47.4248250  46.2623752  87.0788661  48.3132082  46.7979019  88.1815292
  33.5683169  51.7029757  82.9099376  33.4328844  52.5481292  83.3384224
  34.1092982  51.9049034  82.1465310  30.0550509  37.7821337  99.5713732
  29.6617454  37.2287535 100.2461376  30.8716649  38.0931915  99.9620249
  27.0212567  49.2205195  83.4827301  27.5337087  50.0148445  83.6332866
  27.6735279  48.5231485  83.4160903  28.8307451  52.3370951  85.5650055
  29.0074080  53.2588916  85.3771038  29.6264285  52.0229370  85.9944434
  32.9718470  39.1979216  97.1633988  33.7128183  39.7986369  97.0838451
  33.2036393  38.4556853  96.6052031  28.1159808  44.3835583  95.4412218
  28.0013323  43.4820840  95.7419317  27.2604326  44.6299280  95.0897034
  29.9538767  53.8549125  91.5660397  30.5046192  53.7266188  90.7937391
  29.1150243  54.1544014  91.2155290  33.7505938  50.1200253  95.9104628
  34.2834275  49.3588541  95.6803936  33.2220019  49.8273904  96.6528783
  36.9175633  35.2260319  91.4398270  36.5739902  36.1161960  91.3637380
  37.2854595  35.0361976  90.5767855  24.9861483  47.5493849  84.2586872
  25.8236705  47.9590857  84.0420580  25.1639751  46.6093291  84.2287066
  34.4673027  40.0618630  85.0055943  33.6114623  39.6725481  84.8261582
  34.8799978  40.1410591  84.1455729  35.9972173  37.5964974  89.4047503
  35.4936969  37.5595109  88.5915308  36.2902780  38.5057716  89.4644160
  32.2415059  37.6803703  88.4113685  33.1068056  37.4846512  88.0519574
  32.3092568  37.4514055  89.3383042  36.6712219  43.0896022  81.7730486
  36.3662354  43.4042171  82.6240629  37.6242661  43.1677442  81.8157819
  40.0951497  47.4435266  88.5390486  39.4375171  48.1334527  88.6270615
  40.8991896  47.8331697  88.8824473  29.8477378  39.9105911  85.7830052
  30.4221130  39.6881093  85.0503245  30.4348361  39.9794606  86.5358653
  38.9056955  45.7979638  86.5894428  39.4188837  46.4309630  87.0916138
  39.5558179  45.1980834  86.2237788  30.1746965  41.9410372  79.8025937
  29.3384278  42.2785059  80.1235212  30.0351735  41.8059352  78.8653074
  32.1500046  36.7847160  84.5105121  31.4964458  36.4696177  83.8861736
  32.1080520  36.1622901  85.2364944  36.1679330  55.7763963  79.3455099
  35.4941028  56.0795659  79.9540057  36.5545152  56.5793043  78.9960556
  35.3837786  43.2729094  88.8352769  34.4660348  43.4944041  88.6774457
  35.7997930  43.3475404  87.9764476  36.1672834  44.6720509  83.9655449
  36.9144653  45.1841907  83.6562571  36.4364424  44.3504562  84.8259842
  38.6151671  41.7077626  85.9474238  37.8774428  41.1955012  86.2784481
  38.8678445  41.2678007  85.1357515  38.1151691  52.6162136  85.6523389
  38.4074665  53.1767193  84.9335755  38.6250311  52.9090697  86.4076548
  38.7163298  34.4853878  86.5416007  39.0222175  33.6251241  86.2541923
  39.4415903  35.0771498  86.3415001  25.0087655  44.8884564  84.9297605
  24.8112054  44.2953925  84.2048672  24.4534319  44.5836774  85.6473544
  32.9884378  44.7807671  87.0492199  33.0432988  43.8281507  86.9734675
  32.1775580  44.9367110  87.5333497  30.9276738  43.3984731  84.8082577
  30.1144604  43.6978901  85.2147770  31.4235732  43.0040419  85.5257060
  33.0785316  53.3942487  86.7416842  33.0361495  53.6203334  85.8125374
  33.9948015  53.1605862  86.8902643  36.5250950  43.8626555  93.6397471
  36.8800338  44.0898028  94.4991937  37.1723081  44.1944932  93.0174727
  42.2548687  46.9844991  84.3446800  42.1166585  47.1746587  83.4167990
  41.8984906  47.7464374  84.8014851  30.4190813  40.9703086  90.4243812
  31.0590192  40.8291845  89.7266776  29.5868343  40.6837599  90.0482414
  42.2818066  49.0521518  89.3558072  42.7154573  48.9596807  90.2041126
  42.9949647  49.0279018  88.7178088  31.1951117  50.2705516  86.5378805
  31.9891715  49.7755837  86.3361380  30.4842809  49.7423380  86.1746510
  36.0145961  52.6523612  90.8891172  36.0682984  53.2214548  91.6568888
  35.1460743  52.8225497  90.5245210  27.5033880  44.4148598  82.6138557
  26.5731468  44.3533054  82.8308520  27.5991352  43.8924551  81.8175199
  27.4219429  40.9403411  85.2016799  27.6826247  41.8548744  85.0925960
  28.2436602  40.4727854  85.3513412  28.8944355  42.3541168  92.3715624
  29.5667408  42.1458530  91.7228273  28.0674141  42.1563254  91.9320856
  43.1433616  49.0945219  91.8890957  43.3369506  49.9991029  92.1350232
  43.0434234  48.6352638  92.7229542  34.7969927  38.9803109  94.3881285
  34.1497842  39.6793059  94.2945761  35.5670942  39.4139253  94.7557533
  38.2048725  49.2451961  97.4631838  38.0534231  49.0162513  96.5461922
  38.1953404  50.2022563  97.4763183  34.9734061  46.8183874  92.4478104
  35.9026121  46.9695034  92.2747072  34.5525091  46.9067895  91.5926751
  33.7722393  50.8434538  90.2176642  33.6333479  50.4753323  91.0902580
  32.9836989  51.3582178  90.0460600  34.3670545  55.9443635  81.5602178
  34.5422300  55.4731678  82.3747801  33.6803333  56.5709401  81.7883439
  35.3227608  50.2216141  87.6065480  34.9877441  50.1816911  88.5023130
  34.8231554  49.5560857  87.1335890  29.2971852  45.6283771  93.1318061
  29.1591650  44.8964010  93.7329600  30.2076775  45.5392671  92.8502249
  31.9254153  45.3403731  92.6201741  32.6353771  44.6996923  92.5788359
  31.8823461  45.5916625  93.5427921  30.6383087  42.3268948  94.4397380
  30.1020444  41.8759687  95.0918976  30.0499795  42.4614857  93.6967844
  30.0485346  41.7857600  77.0023844  29.1714812  41.6646401  76.6386090
  30.5243099  40.9943678  76.7502732  39.9158339  50.2410668  93.7722299
  39.0285117  49.9036590  93.8948698  40.4856890  49.5093699  94.0091065
  21.5687486  46.5734760  87.0965351  22.2558525  46.2596490  86.5086366
  21.4135614  47.4776124  86.8232602  26.3722208  41.4624956  91.5250374
  26.2880397  40.8550626  90.7900784  25.5504914  41.9533974  91.5259871
  33.4459492  54.9012120  90.7383543  33.3729663  55.7067092  91.2502847
  33.0036885  55.1004086  89.9131564  33.2349272  54.1383890  84.2486364
  32.4516793  54.6805570  84.3424589  33.9342017  54.6557870  84.6480605
  36.5445922  39.9478520  86.8920570  37.0414621  39.1948482  86.5721640
  35.7732903  39.9842836  86.3263779  44.3975679  45.6518885  88.5338861
  44.3865555  46.5343601  88.1632794  43.5293058  45.2990436  88.3393398
  37.6275702  48.7050207  84.4658993  36.6931981  48.8251669  84.2963697
  37.8052371  47.8022674  84.2019003  33.1280890  42.0895903  86.6192254
  32.7578678  41.5366943  87.3073160  33.6239983  41.4854036  86.0667254
  41.0148254  44.5467526  85.0009027  41.4808706  45.3795518  84.9269330
  41.4655754  44.0812508  85.7054286  30.9570089  52.5493398  93.7147272
  31.6579548  53.1829881  93.8676666  30.4865204  52.8908129  92.9542911
  38.9864916  36.9148113  89.0399928  38.0727996  37.1452340  89.2082135
  39.4158018  36.9986557  89.8913961  38.7571375  45.1038005  91.5399822
  38.1042825  45.3513913  90.8852275  39.1351755  44.2902143  91.2062300
  35.7178549  55.1397698  85.6427993  35.9000943  54.3219354  86.1055745
  36.5411535  55.3565391  85.2052883  34.8058948  45.8457816  98.0265860
  34.1299585  45.7451945  98.6968235  35.6286582  45.6897030  98.4901857
  26.5537807  52.0829753  90.6478375  27.1391244  51.3373441  90.7806279
  26.3562645  52.3933709  91.5315039  29.4076462  55.1181000  85.6640817
  28.7386838  55.6027128  85.1804857  29.2689332  55.3650221  86.5784196
  21.1455462  44.6535353  89.3682818  21.1839561  44.1198944  90.1619936
  20.6395755  44.1270558  88.7493795  28.5246224  39.4999893  92.8645360
  28.5887551  40.3614724  92.4522758  28.4613344  38.8873895  92.1317719
  27.9998497  41.5723026  96.5118394  28.6270535  41.1900103  97.1255919
  27.1426415  41.3537228  96.8774087  24.7764039  43.3799455  82.4436749
  25.0717480  42.4710133  82.3903803  23.8752075  43.3587194  82.1217752
  28.3058286  41.4555452  88.4264298  27.5844872  42.0691419  88.2871771
  29.0951542  41.9913216  88.3480944  31.1084600  38.7909878  94.7004950
  31.6319002  39.0372175  95.4631259  30.8896933  39.6229913  94.2808087
  26.5051881  41.0613553  82.5676074  26.1764587  40.1810932  82.3851180
  26.8591252  41.0061221  83.4552464  35.7531460  52.6968455  87.0771060
  35.6056422  51.7685163  87.2578630  36.5784953  52.7188546  86.5928135
  29.6193704  41.3486522  82.9351552  29.9589777  41.8772444  82.2130160
  30.0665825  41.6866929  83.7110119  32.3137145  39.7323573  92.3854620
  31.9733965  38.9331386  92.7875300  31.6076151  40.0325284  91.8131453
  32.9653617  36.8172886  90.8381943  33.7879686  36.3433364  90.7160834
  33.2091680  37.5963369  91.3380629  31.6061851  39.8461144  81.1344845
  32.3270214  40.2242397  80.6308562  30.9827155  40.5650021  81.2379823
  35.7492974  40.5506293  82.0703177  35.9656589  41.4330931  81.7692005
  35.2687041  40.1592506  81.3408819  30.4892196  43.5092006  88.6473922
  30.3436776  43.8232309  89.5398203  30.0117399  44.1276907  88.0944820
  32.3488578  40.4994554  88.6954811  32.3350147  39.6035648  88.3587109
  33.0661007  40.5065218  89.3293097  34.2014709  40.9331894  90.7407939
  33.9432487  41.8548965  90.7392269  33.6699749  40.5362329  91.4308403
  24.9637858  46.0497351  91.5861583  24.4191326  46.8257159  91.7181857
  25.8417208  46.3968155  91.4280704  31.7525474  39.3808935  83.9642381
  31.8741386  38.4525581  84.1633269  31.4627517  39.3947621  83.0520697
  34.6216665  37.0663845  87.1009101  34.6438362  37.1303178  86.1461081
  35.0384724  36.2268354  87.2949608  45.0000289  46.8019105  85.1388324
  45.4431435  46.0526430  84.7407447  44.1226799  46.7929241  84.7562056
  25.7503880  45.1767247  94.4791740  25.0085616  45.3249882  95.0656370
  25.4296624  45.4375513  93.6158489  33.7168154  56.8721135  86.5077506
  33.2773145  56.3797514  87.2010363  34.4676271  56.3294102  86.2669582
  26.1960493  53.0632676  86.5102134  27.0218513  52.7636448  86.1300778
  25.8454545  52.2940298  86.9591923  31.1642026  52.4159144  88.5799808
  30.5422036  51.7529849  88.2802036  31.8346893  52.4420276  87.8973456
  24.3969098  50.9819002  87.4691068  23.5601007  50.5541176  87.2875069
  24.3692744  51.1751445  88.4061859  31.2366554  40.8940932  98.1732314
  31.2854709  41.7703055  97.7910084  31.7789068  40.3518325  97.6003957
  41.8419275  48.2874522  94.7666180  41.8917280  48.1224529  95.7081703
  41.7333198  47.4201781  94.3764060  30.7255533  50.9663067  82.0558269
  30.8743654  51.6498532  81.4024941  31.5321977  50.9468157  82.5707724
  39.1323037  44.2705450  96.0825486  40.0332900  44.1311914  95.7909484
  39.2071011  44.4359904  97.0223664  33.4665842  41.6472304  94.9278673
  32.5969152  41.9405870  94.6561261  33.7025323  42.2312749  95.6485936
  43.3437471  50.7071463  95.0108201  43.0522280  51.0701444  95.8471662
  42.7309603  49.9938471  94.8321533  44.5433154  48.2724343  87.5310771
  45.3780045  48.7114147  87.6948332  44.6792283  47.7962996  86.7119017
  41.5924660  45.8304078  93.4788259  42.0678781  46.0231724  92.6707111
  40.6690225  45.8863264  93.2331643  28.4808166  46.9928245  83.0619338
  28.2354208  46.0890575  83.2599548  28.6504081  46.9945395  82.1198816
  36.1704876  37.8651921  92.4444093  36.6886820  38.6012948  92.1190582
  35.8160009  38.1715915  93.2790852  27.7503814  42.7256602  80.5605499
  27.0573059  42.8000957  79.9045535  27.5055566  41.9616946  81.0827016
  36.4217470  34.2852204  87.9644990  36.7019224  33.6175393  88.5905416
  37.2068077  34.4781299  87.4519654  40.2926329  42.7069838  91.7116565
  41.2443752  42.8067935  91.7328789  40.1229779  41.9148106  92.2214649
  38.3140708  39.7925421  91.8975966  37.7190640  40.0730434  91.2022454
  38.0290405  40.2819322  92.6692707  42.7714406  45.9275957  90.8258864
  42.7390727  44.9891958  91.0118548  43.3815030  46.0059994  90.0924689
  34.6097737  44.7972010  76.8686069  35.5556842  44.6678219  76.9374487
  34.2311982  44.0586672  77.3455497  42.9208895  42.7187001  90.8717148
  42.4047944  41.9345458  90.6847077  43.8048843  42.3905718  91.0363667
  40.5819622  36.4628016  86.8312960  40.3844443  36.1543105  87.7156292
  41.1919327  37.1889655  86.9610890  48.5890956  46.9891964  89.9664901
  49.3194345  46.7277252  90.5272605  47.9797902  46.2520686  90.0066969
  46.6706253  45.1299827  90.5639352  45.9439417  44.9955792  89.9555844
  46.2553540  45.4376656  91.3696071  34.4936430  48.8489757  98.3286726
  35.4139439  49.0268356  98.5226772  34.4586013  47.9045802  98.1766425
  32.7940654  42.7221987  76.8040954  31.8872110  42.4255100  76.8803667
  33.0716635  42.4251805  75.9375240  23.7118595  44.0428350  87.2540000
  23.3921379  43.1893658  86.9614374  23.1652023  44.2576928  88.0097967
  27.4898502  46.7590791  90.9709507  27.7084512  47.6907899  90.9897540
  27.9024276  46.3998766  91.7564311  34.4102720  37.2658877  82.9585195
  33.6003449  36.9205962  83.3340441  35.0987137  36.9566420  83.5472807
  36.3393268  36.3436923  84.5809492  36.8924307  36.7632377  85.2399515
  36.5763355  35.4172671  84.6232448  32.3626368  42.3323997 100.3612256
  32.2623095  43.2818354 100.2924347  32.1447910  42.0042236  99.4888326
  31.5639439  39.5808922  76.9452933  32.4258603  39.9063820  77.2048750
  31.7489783  38.7940418  76.4325999  23.5806855  47.6631262  89.2233122
  22.8870326  47.2485215  88.7103076  24.3279846  47.7051798  88.6266541
  39.7172076  38.4537449  84.0888156  39.1370745  39.1122253  83.7066208
  39.4508008  37.6314793  83.6775573  38.1675642  37.8542506  86.2909476
  38.6675420  37.9659041  85.4823795  38.8111250  37.5503559  86.9310285
  32.2257638  45.7621136  99.1777317  31.7424719  46.5621496  99.3841206
  32.3118577  45.7729081  98.2244761  25.4943597  47.5949516  87.0999137
  25.4714285  47.6937203  86.1481020  25.8044234  48.4414666  87.4216303
  28.1530975  49.6525671  91.2145751  29.1074229  49.6209613  91.1475683
  27.9543499  49.1916294  92.0295977  28.7430357  48.2226787  93.7816549
  29.5623246  48.7170865  93.8051386  29.0167165  47.3058755  93.7534116
  38.4996954  40.6137539  83.1444504  37.6122809  40.8987190  82.9264699
  38.9150943  40.4531302  82.2971781  41.8511490  40.6384060  86.8598843
  42.6271880  41.1280512  87.1323460  41.1259624  41.0642114  87.3170713
  44.2884048  41.3511679  87.9172784  44.8828539  41.1107415  87.2066092
  44.3610632  40.6318810  88.5446320  26.5081204  55.1945290  88.2315949
  26.3735672  54.4345691  87.6653947  26.0913266  55.9186190  87.7644738
  42.2842783  41.9181807  84.1844914  42.0279717  41.5178442  85.0153122
  41.6595651  42.6325601  84.0595053  46.5955121  44.6577880  86.6916205
  46.0354679  44.7271069  87.4647767  45.9898624  44.4818865  85.9715702
  29.6650330  56.0914607  88.4434392  29.5482714  57.0360040  88.3413082
  28.8442776  55.7888169  88.8320191  23.9965272  42.5564920  94.4808746
  24.6424135  42.0463874  94.9695971  23.7882423  43.2933602  95.0552171
  32.5168882  36.8204965  80.2332642  32.5047552  37.7646805  80.3900913
  33.4092304  36.6375110  79.9392103  32.4458446  55.4973855  88.3200399
  31.4954077  55.4975717  88.2064771  32.7490932  54.7506590  87.8036433
  36.3321002  33.4147742  84.4878579  35.5653397  32.8606228  84.6335261
  36.7431707  33.4869610  85.3492730  28.3362763  39.7032538  98.5783760
  29.1994224  39.3469342  98.7887085  27.7628173  39.3646432  99.2659164
  45.4720629  62.4396674  95.2793891  45.4609270  62.0449472  94.4074395
  45.6341268  61.7062746  95.8727663  50.6586255  52.7082655  91.8226956
  50.3269580  53.5778066  91.5988171  50.0631869  52.3918939  92.5020987
  50.5514919  57.4277741  88.9020306  49.6431796  57.3593150  88.6079067
  50.5002515  57.9049686  89.7302132  44.3731663  58.9035880  80.5403705
  44.2531288  59.3492930  81.3789186  43.6784251  59.2521197  79.9817243
  52.4176565  55.6294180  90.6798180  51.7750945  55.9226713  90.0337975
  51.9131494  55.5147100  91.4851377  44.7088567  58.7354587  92.3778889
  45.5549762  59.1594001  92.5213538  44.6487204  58.0788212  93.0717452
  47.8588012  56.3958956  94.0360063  47.6148944  57.1501016  93.4994338
  48.1347942  56.7744303  94.8707310  47.4152704  55.5515389  89.6173900
  46.5537183  55.8496642  89.9090638  47.4415138  55.7685788  88.6854933
  36.9108493  58.4764284  88.1354405  36.1207547  58.7321813  87.6594515
  37.4019740  59.2912622  88.2406445  38.8623238  58.8408864  85.0937881
  38.0654402  58.9527558  85.6121377  38.6348831  59.1795516  84.2278772
  35.1946196  58.7294775  90.5669395  35.4454234  59.6141785  90.8326971
  35.7305744  58.5499376  89.7944487  47.7569387  50.5552236  91.4398270
  47.4133657  51.4453878  91.3637380  48.1248350  50.3653894  90.5767855
  45.3066781  55.3910548  85.0055943  44.4508377  55.0017398  84.8261582
  45.7193733  55.4702509  84.1455729  46.8365928  52.9256891  89.4047503
  46.3330723  52.8887027  88.5915308  47.1296535  53.8349634  89.4644160
  40.6871133  55.2397829  85.7830052  41.2614885  55.0173011  85.0503245
  41.2742115  55.3086524  86.5358653  42.9893800  52.1139078  84.5105121
  42.3358213  51.7988095  83.8861736  42.9474275  51.4914818  85.2364944
  46.2231541  58.6021011  88.8352769  45.3054102  58.8235958  88.6774457
  46.6391684  58.6767322  87.9764476  49.4545426  57.0369543  85.9474238
  48.7168182  56.5246930  86.2784481  49.7072199  56.5969925  85.1357515
  49.5557053  49.8145795  86.5416007  49.8615930  48.9543159  86.2541923
  50.2809658  50.4063416  86.3415001  41.7670493  58.7276648  84.8082577
  40.9538358  59.0270819  85.2147770  42.2629487  58.3332337  85.5257060
  47.3644704  59.1918473  93.6397471  47.7194092  59.4189946  94.4991937
  48.0116836  59.5236849  93.0174727  38.2613184  56.2695329  85.2016799
  38.5220001  57.1840662  85.0925960  39.0830356  55.8019771  85.3513412
  47.3839676  55.2770437  86.8920570  47.8808376  54.5240400  86.5721640
  46.6126658  55.3134754  86.3263779  43.9674645  57.4187820  86.6192254
  43.5972432  56.8658861  87.3073160  44.4633737  56.8145954  86.0667254
  49.8258671  52.2440031  89.0399928  48.9121751  52.4744258  89.2082135
  50.2551772  52.3278475  89.8913961  49.5965129  60.4329923  91.5399822
  48.9436580  60.6805830  90.8852275  49.9745509  59.6194061  91.2062300
  35.6157794  58.7091373  82.4436749  35.9111235  57.8002051  82.3903803
  34.7145830  58.6879112  82.1217752  37.3445635  56.3905470  82.5676074
  37.0158342  55.5102849  82.3851180  37.6985006  56.3353139  83.4552464
  40.4587459  56.6778440  82.9351552  40.7983531  57.2064361  82.2130160
  40.9059579  57.0158846  83.7110119  43.8047371  52.1464803  90.8381943
  44.6273441  51.6725282  90.7160834  44.0485435  52.9255287  91.3380629
  45.0408464  56.2623812  90.7407939  44.7826241  57.1840883  90.7392269
  44.5093504  55.8654247  91.4308403  42.5919229  54.7100852  83.9642381
  42.7135140  53.7817498  84.1633269  42.3021271  54.7239538  83.0520697
  45.4610419  52.3955763  87.1009101  45.4832116  52.4595096  86.1461081
  45.8778478  51.5560271  87.2949608  49.9716791  59.5997367  96.0825486
  50.8726654  59.4603832  95.7909484  50.0464766  59.7651822  97.0223664
  47.0098631  53.1943839  92.4444093  47.5280574  53.9304866  92.1190582
  46.6553763  53.5007832  93.2790852  47.2611225  49.6144121  87.9644990
  47.5412979  48.9467311  88.5905416  48.0461832  49.8073217  87.4519654
  51.1320083  58.0361755  91.7116565  52.0837506  58.1359853  91.7328789
  50.9623534  57.2440024  92.2214649  49.1534463  55.1217339  91.8975966
  48.5584395  55.4022351  91.2022454  48.8684159  55.6111240  92.6692707
  53.7602649  58.0478919  90.8717148  53.2441698  57.2637375  90.6847077
  54.6442598  57.7197635  91.0363667  51.4213376  51.7919934  86.8312960
  51.2238197  51.4835022  87.7156292  52.0313082  52.5181573  86.9610890
  47.1787023  51.6728841  84.5809492  47.7318062  52.0924294  85.2399515
  47.4157109  50.7464589  84.6232448  49.0069396  53.1834424  86.2909476
  49.5069175  53.2950958  85.4823795  49.6505004  52.8795477  86.9310285
  52.6905244  55.9675978  86.8598843  53.4665634  56.4572430  87.1323460
  51.9653378  56.3934032  87.3170713  55.1277803  56.6803597  87.9172784
  55.7222294  56.4399333  87.2066092  55.2004387  55.9610727  88.5446320
  53.1236538  57.2473724  84.1844914  52.8673472  56.8470360  85.0153122
  52.4989406  57.9617518  84.0595053  47.1714756  48.7439659  84.4878579
  46.4047152  48.1898146  84.6335261  47.5825461  48.8161528  85.3492730
  60.0780114  82.6369836  98.1172130  60.6220018  83.2499795  97.6227085
  59.4966959  83.1949415  98.6339143  67.1508138  93.0980509  95.2793891
  67.1396779  92.7033307  94.4074395  67.3128777  92.3646582  95.8727663
  68.1074729  97.4652101  80.6219042  67.4562709  98.0506182  80.2353055
  68.9019092  97.9958296  80.6814079  63.8715399  95.8817621  94.2273075
  63.5805265  96.7863252  94.1119742  64.5072383  95.9234148  94.9417145
  69.5849994  95.1542533  81.1588026  68.9495827  95.2277160  81.8708931
  69.2547401  95.7436132  80.4807105  74.8148344  89.6544916  87.3632348
  75.5473516  89.0844133  87.5970177  74.0587700  89.2666517  87.8038853
  72.3373764  83.3666490  91.8226956  72.0057089  84.2361901  91.5988171
  71.7419378  83.0502774  92.5020987  68.8305284  95.5679036  91.2222869
  68.5306007  96.4704075  91.1138676  68.4856344  95.3011220  92.0744022
  72.2302428  88.0861577  88.9020306  71.3219305  88.0176985  88.6079067
  72.1790024  88.5633521  89.7302132  63.8126064 102.3323357  84.1893837
  63.7350094 103.2831182  84.2682317  63.2087707 101.9869229  84.8468763
  66.3043294  89.5051222  96.8455203  65.5276628  90.0645142  96.8358068
  66.9433857  89.9908005  97.3670074  74.0964074  86.2878015  90.6798180
  73.4538454  86.5810548  90.0337975  73.5919003  86.1730935  91.4851377
  64.5589666  92.3136676  96.4073170  65.3004350  92.8521719  96.1307994
  63.8526651  92.9402964  96.5644722  70.0345006  94.4565816  95.0045332
  70.4428362  94.0148226  94.2599964  69.3122267  93.8818443  95.2579525
  70.3573820  95.0167007  88.7597621  69.7282683  95.1812721  88.0573689
  69.9699482  95.4308616  89.5308585  74.2363052  95.9521444  86.1141985
  73.5514090  96.3320346  85.5639018  74.3206901  96.5616771  86.8473932
  69.5375521  87.0542791  94.0360063  69.2936453  87.8084852  93.4994338
  69.8135451  87.4328139  94.8707310  71.4913984  93.5981403  92.7137328
  71.7030879  94.2413163  92.0371709  71.4443732  92.7643720  92.2459258
  65.9101782  94.7541415  86.0247706  66.3740128  95.0329118  85.2352328
  65.6458580  93.8524859  85.8420797  63.2951030  89.4676324  97.2088480
  62.6649690  90.1492605  97.4423877  63.1887118  89.3559405  96.2641619
  72.6059812  96.4753359  90.8859685  73.4277255  96.0733546  90.6042367
  72.6022214  96.3721593  91.8375801  80.6965805  92.8192107  87.2344657
  79.9429513  92.2499505  87.0788661  80.8313346  92.7854772  88.1815292
  66.0864433  97.6905510  82.9099376  65.9510108  98.5357045  83.3384224
  66.6274245  97.8924787  82.1465310  62.5731772  83.7697090  99.5713732
  62.1798718  83.2163288 100.2461376  63.3897913  84.0807668  99.9620249
  61.3488715  98.3246704  85.5650055  61.5255343  99.2464669  85.3771038
  62.1445548  98.0105123  85.9944434  65.4899733  85.1854969  97.1633988
  66.2309447  85.7862122  97.0838451  65.7217656  84.4432606  96.6052031
  67.7132909  98.3129076  97.0399718  67.2696763  97.5265455  96.7220623
  68.3750123  98.5008227  96.3743609  62.4720030  99.8424878  91.5660397
  63.0227455  99.7141941  90.7937391  61.6331506 100.1419767  91.2155290
  69.8114147  98.5931876  95.0681120  69.7932623  99.4140757  94.5761389
  70.7334067  98.4685951  95.2931261  66.2687201  96.1076006  95.9104628
  66.8015538  95.3464294  95.6803936  65.7401282  95.8149657  96.6528783
  69.4356896  81.2136072  91.4398270  69.0921166  82.1037713  91.3637380
  69.8035859  81.0237729  90.5767855  69.4007179  91.2044683  79.9470705
  68.8853802  91.9749287  80.1859092  69.1284487  90.5309819  80.5703766
  74.3741453  93.9577037  81.8823878  73.5970896  93.6188197  81.4379040
  75.0532934  93.9629660  81.2078843  67.6339914  95.2361998  83.4223440
  67.1061276  94.5014758  83.1096678  67.1327417  96.0136674  83.1763408
  72.6132760  93.4311019  88.5390486  71.9556434  94.1210280  88.6270615
  73.4173159  93.8207451  88.8824473  71.4238219  91.7855391  86.5894428
  71.9370101  92.4185383  87.0916138  72.0739443  91.1856587  86.2237788
  65.7792514  93.0542208  76.4258413  64.8719576  92.8231462  76.6249562
  66.2763546  92.2579828  76.6132395  68.6860593 101.7639716  79.3455099
  68.0122292 102.0671412  79.9540057  69.0726415 102.5668796  78.9960556
  66.9580748  93.1554803  80.9482403  66.0491967  92.8713836  81.0454873
  66.9875831  93.5753882  80.0885710  72.1900015  96.7661393  84.7173571
  71.7362342  95.9252303  84.7738761  71.5593982  97.4022791  85.0548351
  70.6332954  98.6037889  85.6523389  70.9255929  99.1642947  84.9335755
  71.1431575  98.8966450  86.4076548  66.6556835  94.6963547  78.2870482
  66.2176265  93.9799406  77.8276119  67.3967276  94.9239662  77.7255573
  65.5966580  99.3818240  86.7416842  65.5542758  99.6079087  85.8125374
  66.5129278  99.1481615  86.8902643  74.7729950  92.9720744  84.3446800
  74.6347849  93.1622340  83.4167990  74.4166169  93.7340127  84.8014851
  74.7999330  95.0397271  89.3558072  75.2335837  94.9472560  90.2041126
  75.5130911  95.0154771  88.7178088  68.5327225  98.6399365  90.8891172
  68.5864247  99.2090301  91.6568888  67.6642006  98.8101250  90.5245210
  75.6614879  95.0820972  91.8890957  75.8550769  95.9866782  92.1350232
  75.5615498  94.6228391  92.7229542  70.7229988  95.2327714  97.4631838
  70.5715494  95.0038266  96.5461922  70.7134668  96.1898316  97.4763183
  66.8851808 101.9319388  81.5602178  67.0603564 101.4607431  82.3747801
  66.1984596 102.5585154  81.7883439  67.8408871  96.2091894  87.6065480
  67.5058704  96.1692664  88.5023130  67.3412817  95.5436610  87.1335890
  70.7768063  93.5547929  77.8802539  70.1597234  92.8294757  77.7835592
  70.3084552  94.3157289  77.5369614  72.4322195  98.2646837  95.5408320
  72.3734741  97.5806057  94.8738903  72.8341713  99.0065827  95.0888946
  61.4512894 105.0808751  88.3342039  61.6909492 105.7127275  89.0121057
  60.6082090 104.7296791  88.6207398  72.4339602  96.2286421  93.7722299
  71.5466381  95.8912343  93.8948698  73.0038153  95.4969452  94.0091065
  65.9640755 100.8887873  90.7383543  65.8910927 101.6942845  91.2502847
  65.5218149 101.0879839  89.9131564  65.7530535 100.1259643  84.2486364
  64.9698057 100.6681323  84.3424589  66.4523280 100.6433623  84.6480605
  76.9156943  91.6394638  88.5338861  76.9046819  92.5219354  88.1632794
  76.0474322  91.2866189  88.3393398  68.4239439 100.7874707  92.8941701
  69.1367411 101.4222172  92.8217603  67.9329468 100.8838573  92.0781703
  70.1456966  94.6925960  84.4658993  69.2113245  94.8127422  84.2963697
  70.3233634  93.7898427  84.2019003  73.5329517  90.5343279  85.0009027
  73.9989969  91.3671271  84.9269330  73.9837018  90.0688261  85.7054286
  63.4751352  98.5369151  93.7147272  64.1760812  99.1705634  93.8676666
  63.0046467  98.8783882  92.9542911  71.6005748  96.8787100  81.9995179
  71.8765592  96.7643695  82.9089053  70.7310247  96.4804585  81.9607352
  71.5046180  82.9023866  89.0399928  70.5909260  83.1328093  89.2082135
  71.9339281  82.9862310  89.8913961  71.2752638  91.0913758  91.5399822
  70.6224089  91.3389666  90.8852275  71.6533018  90.2777896  91.2062300
  68.2359812 101.1273451  85.6427993  68.4182207 100.3095107  86.1055745
  69.0592798 101.3441144  85.2052883  68.5701978 100.0541636  82.9043041
  69.0989744  99.5434091  82.2913203  68.8330197  99.7384167  83.7688574
  67.3240211  91.8333569  98.0265860  66.6480848  91.7327698  98.6968235
  68.1467845  91.6772783  98.4901857  61.9257726 101.1056753  85.6640817
  61.2568101 101.5902881  85.1804857  61.7870595 101.3525974  86.5784196
  66.0662994 103.1400497  92.2623475  66.6181302 103.3032118  93.0272561
  66.4069188 103.7304934  91.5903500  70.9173869  97.9661754  98.1172130
  71.4613773  98.5791712  97.6227085  70.3360713  98.5241333  98.6339143
  69.2031382 101.0882472  89.2487158  69.0782521 100.2872212  88.7398103
  69.8610473 101.5828666  88.7601128  71.2666290  98.8891492  90.8766708
  70.3196626  98.7696843  90.8045034  71.6149063  98.0013990  90.9592969
  68.2712723  98.6844208  87.0771060  68.1237686  97.7560916  87.2578630
  69.0966217  98.7064299  86.5928135  71.8746845  99.5072767  88.1635933
  72.7993393  99.3015629  88.0260384  71.7062148  99.2589168  89.0725274
  71.6642161 100.0258435  83.5198024  71.8379039  99.4604857  82.7671877
  72.1571053 100.8259330  83.3377514  77.5181553  92.7894858  85.1388324
  77.9612699  92.0402183  84.7407447  76.6408063  92.7804994  84.7562056
  72.6517334  99.3425199  80.6194922  73.3468238  99.9631892  80.8382237
  72.9940484  98.4920550  80.8947300  74.5508757  96.7924905  82.1482253
  75.0760081  97.1312177  81.4231573  74.4631109  95.8571920  81.9645388
  66.2128806 100.7058978  94.2772130  66.5215932 100.4608125  95.1494829
  67.0104288 100.9105617  93.7891000  66.2349418 102.8596888  86.5077506
  65.7954408 102.3673267  87.2010363  66.9857535 102.3169856  86.2669582
  63.6823290  98.4034897  88.5799808  63.0603299  97.7405602  88.2802036
  64.3528157  98.4296029  87.8973456  63.7547817  86.8816685  98.1732314
  63.8035973  87.7578808  97.7910084  64.2970332  86.3394078  97.6003957
  74.2402663  97.4257808  97.4533451  73.4498207  97.4081947  96.9137951
  74.0036018  97.9646102  98.2082488  74.3600538  94.2750275  94.7666180
  74.4098543  94.1100282  95.7081703  74.2514461  93.4077534  94.3764060
  63.2436797  96.9538820  82.0558269  63.3924917  97.6374285  81.4024941
  64.0503240  96.9343910  82.5707724  71.6504300  90.2581203  96.0825486
  72.5514163  90.1187667  95.7909484  71.7252275  90.4235657  97.0223664
  65.9847106  87.6348057  94.9278673  65.1150415  87.9281623  94.6561261
  66.2206586  88.2188502  95.6485936  75.8618735  96.6947216  95.0108201
  75.5703543  97.0577197  95.8471662  75.2490866  95.9814224  94.8321533
  77.0614417  94.2600096  87.5310771  77.8961309  94.6989900  87.6948332
  77.1973546  93.7838749  86.7119017  74.1105923  91.8179831  93.4788259
  74.5860045  92.0107477  92.6707111  73.1871489  91.8739017  93.2331643
  66.7432202  99.4486951  79.5270016  66.1706169 100.0677138  79.0740488
  67.3164996  99.9986312  80.0609938  72.8107592  88.6945591  91.7116565
  73.7625015  88.7943688  91.7328789  72.6411043  87.9023859  92.2214649
  70.8321972  85.7801174  91.8975966  70.2371904  86.0606187  91.2022454
  70.5471668  86.2695075  92.6692707  69.9629462  99.7324101  80.6578598
  70.8960135  99.6669663  80.8611474  69.8752675 100.5680368  80.1993131
  72.5917479  99.0489971  77.6182546  72.5131110  98.7149835  78.5118304
  73.4127146  99.5411739  77.6174018  75.2895670  91.9151711  90.8258864
  75.2571990  90.9767711  91.0118548  75.8996294  91.9935747  90.0924689
  67.1279001  90.7847763  76.8686069  68.0738105  90.6553972  76.9374487
  66.7493246  90.0462425  77.3455497  75.4390158  88.7062754  90.8717148
  74.9229207  87.9221211  90.6847077  76.3230107  88.3781471  91.0363667
  81.1072220  92.9767717  89.9664901  81.8375608  92.7153005  90.5272605
  80.4979165  92.2396439  90.0066969  79.1887517  91.1175580  90.5639352
  78.4620680  90.9831545  89.9555844  78.7734804  91.4252409  91.3696071
  67.0117693  94.8365510  98.3286726  67.9320703  95.0144109  98.5226772
  66.9767276  93.8921555  98.1766425  65.3121918  88.7097740  76.8040954
  64.4053373  88.4130853  76.8803667  65.5897899  88.4127558  75.9375240
  64.8807631  88.3199750 100.3612256  64.7804358  89.2694107 100.2924347
  64.6629173  87.9917989  99.4888326  64.7438901  91.7496889  99.1777317
  64.2605983  92.5497249  99.3841206  64.8299840  91.7604834  98.2244761
  74.3692753  86.6259813  86.8598843  75.1453143  87.1156265  87.1323460
  73.6440887  87.0517867  87.3170713  76.8065312  87.3387432  87.9172784
  77.4009803  87.0983168  87.2066092  76.8791896  86.6194563  88.5446320
  59.0262468 101.1821043  88.2315949  58.8916935 100.4221444  87.6653947
  58.6094530 101.9061943  87.7644738  70.1621431  96.3657967  77.2392524
  70.8657281  96.5707969  77.8550180  69.4384079  96.9334728  77.5041608
  70.9919241  92.1167828  83.3594794  70.9354442  92.5736379  82.5202427
  71.5447583  91.3558512  83.1817637  74.8024047  87.9057560  84.1844914
  74.5460981  87.5054195  85.0153122  74.1776915  88.6201354  84.0595053
  79.1136385  90.6453633  86.6916205  78.5535943  90.7146822  87.4647767
  78.5079888  90.4694618  85.9715702  62.1831593 102.0790360  88.4434392
  62.0663978 103.0235793  88.3413082  61.3624040 101.7763922  88.8320191
  72.0708128  96.8040496  79.2890984  72.9053732  96.3721694  79.1068459
  71.9092471  96.6322509  80.2167879  71.7254020  93.3072609  80.6547324
  71.6702824  93.1416881  79.7135768  71.1000075  94.0148642  80.8109513
  69.0399927  95.6121521  99.9800886  69.9091087  95.7862173  99.6187521
  68.5606679  96.4315938  99.8576616  63.2086108 102.7318622  91.6590320
  64.1113354 102.7642232  91.9756815  62.9823478 101.8019073  91.6736656
  64.9639710 101.4849609  88.3200399  64.0135341 101.4851470  88.2064771
  65.2672196 100.7382343  87.8036433  60.8544026  85.6908291  98.5783760
  61.7175488  85.3345095  98.7887085  60.2809437  85.3522185  99.2659164
  80.6992403 107.3210147  89.3846161  81.3370813 107.2016894  88.6809501
  80.5813246 108.2690991  89.4434113  77.5082109 107.2737575  89.3207686
  77.1700621 107.1578640  88.4328221  78.3771877 106.8728740  89.3008692
  73.3668925 109.1273051  85.3104577  72.8033790 109.0362988  84.5420864
  73.2521320 108.3072956  85.7907069  77.9901892 108.4272427  95.2793891
  77.9790533 108.0325225  94.4074395  78.1522532 107.6938499  95.8727663
  70.9133357 110.6224243  88.1488797  71.7054649 110.2815068  87.7335096
  71.1530007 110.7319218  89.0690950  78.9468484 112.7944019  80.6219042
  78.2956463 113.3798100  80.2353055  79.7412847 113.3250214  80.6814079
  72.8724111 109.8833156  81.0206176  73.6454987 109.3362143  80.8819052
  73.2249510 110.7477406  81.2320637  74.7109153 111.2109539  94.2273075
  74.4199019 112.1155169  94.1119742  75.3466138 111.2526066  94.9417145
  75.6365360 108.5886387  90.8174435  76.2328933 108.3642409  90.1031398
  75.6940332 107.8471133  91.4199883  75.2090389 106.0425822  78.6524626
  75.4615909 105.5207344  77.8908089  74.2714948 105.8791968  78.7551309
  80.2533671 105.0461601  86.4599369  81.0396761 104.6281024  86.1089786
  80.5172376 105.9507693  86.6281017  80.4243749 110.4834451  81.1588026
  79.7889582 110.5569078  81.8708931  80.0941155 111.0728050  80.4807105
  85.6542099 104.9836834  87.3632348  86.3867271 104.4136051  87.5970177
  84.8981454 104.5958434  87.8038853  74.9286677 107.9453928  80.8549001
  74.8122936 107.2698832  81.5230085  75.0388937 107.4586302  80.0381154
  77.2718218 107.4064075  84.5595690  76.9076426 106.8794696  85.2708611
  78.1285334 107.0162545  84.3862175  83.1767519  98.6958408  91.8226956
  82.8450844  99.5653819  91.5988171  82.5813132  98.3794692  92.5020987
  76.9123705 102.4353975  79.5557039  77.0798108 103.3034212  79.9227510
  76.7220874 102.5981257  78.6318328  79.6699039 110.8970954  91.2222869
  79.3699762 111.7995993  91.1138676  79.3250098 110.6303137  92.0744022
  73.1211520 107.3484751  87.2559573  72.1962016 107.2160965  87.4637265
  73.3695933 108.1278970  87.7529516  83.0696182 103.4153494  88.9020306
  82.1613060 103.3468903  88.6079067  83.0183778 103.8925439  89.7302132
  76.8912926 104.8911633  80.5403705  76.7712551 105.3368683  81.3789186
  76.1965515 105.2396950  79.9817243  70.4820331 106.9918024  88.0903362
  70.6112712 107.2452503  89.0042774  69.8017782 107.5845732  87.7708017
  74.6519818 117.6615274  84.1893837  74.5743848 118.6123099  84.2682317
  74.0481462 117.3161147  84.8468763  77.1437048 104.8343140  96.8455203
  76.3670382 105.3937060  96.8358068  77.7827611 105.3199923  97.3670074
  84.9357829 101.6169933  90.6798180  84.2932209 101.9102466  90.0337975
  84.4312757 101.5022853  91.4851377  82.5897992 105.3633106  81.3684039
  83.5015848 105.5960493  81.1931737  82.0807639 105.9470150  80.8059118
  75.3983420 107.6428593  96.4073170  76.1398105 108.1813637  96.1307994
  74.6920406 108.2694882  96.5644722  80.8738760 109.7857734  95.0045332
  81.2822116 109.3440144  94.2599964  80.1516022 109.2110361  95.2579525
  77.2269830 104.7230340  92.3778889  78.0731025 105.1469754  92.5213538
  77.1668468 104.0663965  93.0717452  81.1967575 110.3458924  88.7597621
  80.5676437 110.5104638  88.0573689  80.8093237 110.7600534  89.5308585
  85.0756807 111.2813362  86.1141985  84.3907845 111.6612263  85.5639018
  85.1600656 111.8908689  86.8473932  80.3769275 102.3834709  94.0360063
  80.1330207 103.1376769  93.4994338  80.6529206 102.7620056  94.8707310
  82.3307738 108.9273321  92.7137328  82.5424633 109.5705081  92.0371709
  82.2837486 108.0935638  92.2459258  79.9333967 101.5391142  89.6173900
  79.0718446 101.8372395  89.9090638  79.9596402 101.7561541  88.6854933
  76.7495537 110.0833332  86.0247706  77.2133882 110.3621035  85.2352328
  76.4852335 109.1816777  85.8420797  73.6419618 109.6304814  88.9627469
  74.2120975 110.0592082  88.3244954  74.2327729 109.3487399  89.6611655
  75.6864423 106.2056485  82.8337271  76.3888466 106.6577528  83.3011197
  75.3545051 105.5640304  83.4617164  74.1344784 104.7968241  97.2088480
  73.5043445 105.4784522  97.4423877  74.0280872 104.6851323  96.2641619
  69.4289757 104.4640037  88.1354405  68.6388811 104.7197566  87.6594515
  69.9201004 105.2788375  88.2406445  83.4453566 111.8045277  90.8859685
  84.2671010 111.4025464  90.6042367  83.4415969 111.7013511  91.8375801
  71.3804502 104.8284617  85.0937881  70.5835665 104.9403311  85.6121377
  71.1530094 105.1671269  84.2278772  77.2110170 111.3529320  93.0420396
  77.2754602 111.8149727  93.8778568  76.5021093 110.7226685  93.1702706
  67.7127460 104.7170528  90.5669395  67.9635498 105.6017538  90.8326971
  68.2487008 104.5375129  89.7944487  91.5359559 108.1484025  87.2344657
  90.7823268 107.5791423  87.0788661  91.6707100 108.1146690  88.1815292
  76.9258187 113.0197427  82.9099376  76.7903862 113.8648963  83.3384224
  77.4668000 113.2216705  82.1465310  73.4125527  99.0989007  99.5713732
  73.0192472  98.5455206 100.2461376  74.2291667  99.4099586  99.9620249
  70.3787585 110.5372865  83.4827301  70.8912105 111.3316116  83.6332866
  71.0310297 109.8399156  83.4160903  72.1882469 113.6538622  85.5650055
  72.3649098 114.5756586  85.3771038  72.9839303 113.3397041  85.9944434
  76.3293488 100.5146886  97.1633988  77.0703201 101.1154039  97.0838451
  76.5611411  99.7724524  96.6052031  71.4734826 105.7003254  95.4412218
  71.3588341 104.7988511  95.7419317  70.6179344 105.9466950  95.0897034
  78.5526664 113.6420994  97.0399718  78.1090518 112.8557372  96.7220623
  79.2143877 113.8300144  96.3743609  73.3113785 115.1716795  91.5660397
  73.8621210 115.0433859  90.7937391  72.4725261 115.4711684  91.2155290
  80.6507902 113.9223794  95.0681120  80.6326377 114.7432675  94.5761389
  81.5727822 113.7977869  95.2931261  77.1080956 111.4367923  95.9104628
  77.6409293 110.6756211  95.6803936  76.5795037 111.1441575  96.6528783
  80.2750651  96.5427989  91.4398270  79.9314920  97.4329631  91.3637380
  80.6429613  96.3529647  90.5767855  68.3436501 108.8661520  84.2586872
  69.1811723 109.2758528  84.0420580  68.5214769 107.9260962  84.2287066
  80.2400934 106.5336600  79.9470705  79.7247557 107.3041205  80.1859092
  79.9678242 105.8601737  80.5703766  77.8248045 101.3786301  85.0055943
  76.9689641 100.9893152  84.8261582  78.2374996 101.4578262  84.1455729
  79.3547191  98.9132644  89.4047503  78.8511987  98.8762780  88.5915308
  79.6477798  99.8225387  89.4644160  75.5990077  98.9971374  88.4113685
  76.4643074  98.8014183  88.0519574  75.6667586  98.7681726  89.3383042
  85.2135208 109.2868955  81.8823878  84.4364650 108.9480114  81.4379040
  85.8926689 109.2921578  81.2078843  80.0287237 104.4063692  81.7730486
  79.7237372 104.7209842  82.6240629  80.9817679 104.4845112  81.8157819
  78.4733669 110.5653916  83.4223440  77.9455030 109.8306675  83.1096678
  77.9721171 111.3428592  83.1763408  83.4526515 108.7602936  88.5390486
  82.7950189 109.4502198  88.6270615  84.2566914 109.1499368  88.8824473
  73.2052396 101.2273582  85.7830052  73.7796148 101.0048764  85.0503245
  73.7923379 101.2962277  86.5358653  82.2631973 107.1147309  86.5894428
  82.7763855 107.7477301  87.0916138  82.9133197 106.5148504  86.2237788
  73.5321983 103.2578043  79.8025937  72.6959296 103.5952730  80.1235212
  73.3926753 103.1227023  78.8653074  75.5075064  98.1014831  84.5105121
  74.8539476  97.7863848  83.8861736  75.4655538  97.4790571  85.2364944
  76.6186269 108.3834126  76.4258413  75.7113330 108.1523379  76.6249562
  77.1157301 107.5871745  76.6132395  79.5254348 117.0931633  79.3455099
  78.8516046 117.3963330  79.9540057  79.9120170 117.8960714  78.9960556
  78.7412804 104.5896764  88.8352769  77.8235366 104.8111711  88.6774457
  79.1572948 104.6643075  87.9764476  79.5247852 105.9888180  83.9655449
  80.2719671 106.5009577  83.6562571  79.7939442 105.6672233  84.8259842
  77.7974502 108.4846721  80.9482403  76.8885721 108.2005754  81.0454873
  77.8269586 108.9045799  80.0885710  83.0293770 112.0953310  84.7173571
  82.5756097 111.2544220  84.7738761  82.3987736 112.7314709  85.0548351
  81.9726689 103.0245296  85.9474238  81.2349446 102.5122683  86.2784481
  82.2253463 102.5845678  85.1357515  81.4726709 113.9329807  85.6523389
  81.7649683 114.4934864  84.9335755  81.9825329 114.2258368  86.4076548
  82.0738316  95.8021548  86.5416007  82.3797193  94.9418912  86.2541923
  82.7990921  96.3939169  86.3415001  68.3662673 106.2052235  84.9297605
  68.1687072 105.6121596  84.2048672  67.8109337 105.9004445  85.6473544
  76.3459396 106.0975341  87.0492199  76.4008006 105.1449178  86.9734675
  75.5350598 106.2534781  87.5333497  77.4950590 110.0255465  78.2870482
  77.0570020 109.3091323  77.8276119  78.2361031 110.2531579  77.7255573
  74.2851756 104.7152401  84.8082577  73.4719622 105.0146572  85.2147770
  74.7810750 104.3208090  85.5257060  76.4360334 114.7110158  86.7416842
  76.3936513 114.9371004  85.8125374  77.3523033 114.4773533  86.8902643
  79.8825968 105.1794226  93.6397471  80.2375356 105.4065699  94.4991937
  80.5298099 105.5112602  93.0174727  85.6123705 108.3012662  84.3446800
  85.4741603 108.4914258  83.4167990  85.2559924 109.0632044  84.8014851
  73.7765831 102.2870757  90.4243812  74.4165210 102.1459516  89.7266776
  72.9443361 102.0005270  90.0482414  85.6393084 110.3689189  89.3558072
  86.0729591 110.2764478  90.2041126  86.3524665 110.3446689  88.7178088
  74.5526135 111.5873187  86.5378805  75.3466733 111.0923507  86.3361380
  73.8417827 111.0591050  86.1746510  79.3720979 113.9691283  90.8891172
  79.4258002 114.5382219  91.6568888  78.5035761 114.1393168  90.5245210
  70.8608898 105.7316269  82.6138557  69.9306486 105.6700724  82.8308520
  70.9566370 105.2092222  81.8175199  70.7794447 102.2571082  85.2016799
  71.0401265 103.1716415  85.0925960  71.6011620 101.7895524  85.3513412
  72.2519373 103.6708839  92.3715624  72.9242426 103.4626201  91.7228273
  71.4249159 103.4730925  91.9320856  86.5008634 110.4112889  91.8890957
  86.6944524 111.3158700  92.1350232  86.4009252 109.9520308  92.7229542
  78.1544945 100.2970780  94.3881285  77.5072860 100.9960729  94.2945761
  78.9245960 100.7306924  94.7557533  81.5623743 110.5619632  97.4631838
  81.4109249 110.3330184  96.5461922  81.5528422 111.5190233  97.4763183
  78.3309079 108.1351545  92.4478104  79.2601139 108.2862704  92.2747072
  77.9100109 108.2235566  91.5926751  77.1297411 112.1602209  90.2176642
  76.9908496 111.7920994  91.0902580  76.3412007 112.6749849  90.0460600
  77.7245563 117.2611306  81.5602178  77.8997318 116.7899349  82.3747801
  77.0378351 117.8877072  81.7883439  78.6802626 111.5383812  87.6065480
  78.3452459 111.4984582  88.5023130  78.1806572 110.8728528  87.1335890
  72.6546870 106.9451442  93.1318061  72.5166668 106.2131681  93.7329600
  73.5651793 106.8560342  92.8502249  81.6161818 108.8839846  77.8802539
  80.9990988 108.1586674  77.7835592  81.1478306 109.6449206  77.5369614
  75.2829171 106.6571401  92.6201741  75.9928789 106.0164593  92.5788359
  75.2398479 106.9084296  93.5427921  83.2715949 113.5938755  95.5408320
  83.2128495 112.9097975  94.8738903  83.6735468 114.3357745  95.0888946
  73.9958105 103.6436619  94.4397380  73.4595462 103.1927358  95.0918976
  73.4074813 103.7782528  93.6967844  72.2906648 120.4100668  88.3342039
  72.5303246 121.0419193  89.0121057  71.4475845 120.0588708  88.6207398
  73.4060363 103.1025271  77.0023844  72.5289830 102.9814071  76.6386090
  73.8818117 102.3111349  76.7502732  83.2733356 111.5578338  93.7722299
  82.3860135 111.2204260  93.8948698  83.8431908 110.8261370  94.0091065
  64.9262504 107.8902430  87.0965351  65.6133543 107.5764160  86.5086366
  64.7710632 108.7943795  86.8232602  69.7297226 102.7792627  91.5250374
  69.6455414 102.1718296  90.7900784  68.9079932 103.2701645  91.5259871
  76.8034510 116.2179791  90.7383543  76.7304681 117.0234762  91.2502847
  76.3611903 116.4171757  89.9131564  76.5924290 115.4551561  84.2486364
  75.8091811 115.9973241  84.3424589  77.2917035 115.9725541  84.6480605
  79.9020940 101.2646190  86.8920570  80.3989639 100.5116153  86.5721640
  79.1307921 101.3010507  86.3263779  87.7550697 106.9686556  88.5338861
  87.7440573 107.8511271  88.1632794  86.8868076 106.6158107  88.3393398
  79.2633193 116.1166625  92.8941701  79.9761166 116.7514090  92.8217603
  78.7723222 116.2130491  92.0781703  80.9850720 110.0217878  84.4658993
  80.0506999 110.1419340  84.2963697  81.1627389 109.1190344  84.2019003
  76.4855908 103.4063573  86.6192254  76.1153696 102.8534614  87.3073160
  76.9815001 102.8021707  86.0667254  84.3723272 105.8635197  85.0009027
  84.8383724 106.6963188  84.9269330  84.8230772 105.3980178  85.7054286
  74.3145107 113.8661068  93.7147272  75.0154566 114.4997551  93.8676666
  73.8440222 114.2075800  92.9542911  82.4399503 112.2079018  81.9995179
  82.7159347 112.0935613  82.9089053  81.5704002 111.8096503  81.9607352
  82.3439934  98.2315784  89.0399928  81.4303014  98.4620011  89.2082135
  82.7733036  98.3154228  89.8913961  82.1146393 106.4205676  91.5399822
  81.4617843 106.6681583  90.8852275  82.4926773 105.6069814  91.2062300
  79.0753567 116.4565369  85.6427993  79.2575961 115.6387025  86.1055745
  79.8986553 116.6733061  85.2052883  79.4095732 115.3833554  82.9043041
  79.9383499 114.8726009  82.2913203  79.6723952 115.0676084  83.7688574
  78.1633966 107.1625487  98.0265860  77.4874603 107.0619616  98.6968235
  78.9861600 107.0064701  98.4901857  69.9112825 113.3997423  90.6478375
  70.4966262 112.6541111  90.7806279  69.7137663 113.7101380  91.5315039
  72.7651480 116.4348671  85.6640817  72.0961855 116.9194798  85.1804857
  72.6264350 116.6817891  86.5784196  64.5030480 105.9703024  89.3682818
  64.5414579 105.4366614  90.1619936  63.9970773 105.4438229  88.7493795
  76.9056749 118.4692414  92.2623475  77.4575057 118.6324036  93.0272561
  77.2462942 119.0596852  91.5903500  71.8821242 100.8167564  92.8645360
  71.9462569 101.6782395  92.4522758  71.8188362 100.2041566  92.1317719
  71.3573515 102.8890697  96.5118394  71.9845553 102.5067774  97.1255919
  70.5001433 102.6704899  96.8774087  68.1339057 104.6967126  82.4436749
  68.4292498 103.7877804  82.3903803  67.2327093 104.6754865  82.1217752
  80.0425136 116.4174390  89.2487158  79.9176276 115.6164130  88.7398103
  80.7004227 116.9120583  88.7601128  71.6633304 102.7723122  88.4264298
  70.9419890 103.3859090  88.2871771  72.4526560 103.3080887  88.3480944
  82.1060044 114.2183410  90.8766708  81.1590380 114.0988761  90.8045034
  82.4542818 113.3305908  90.9592969  74.4659618 100.1077549  94.7004950
  74.9894020 100.3539845  95.4631259  74.2471951 100.9397584  94.2808087
  69.8626899 102.3781223  82.5676074  69.5339605 101.4978602  82.3851180
  70.2166270 102.3228892  83.4552464  79.1106478 114.0136126  87.0771060
  78.9631440 113.0852834  87.2578630  79.9359971 114.0356217  86.5928135
  72.9768722 102.6654193  82.9351552  73.3164795 103.1940114  82.2130160
  73.4240843 103.0034599  83.7110119  82.7140600 114.8364685  88.1635933
  83.6387147 114.6307546  88.0260384  82.5455903 114.5881086  89.0725274
  75.6712163 101.0491244  92.3854620  75.3308983 100.2499057  92.7875300
  74.9651169 101.3492955  91.8131453  76.3228635  98.1340556  90.8381943
  77.1454704  97.6601035  90.7160834  76.5666698  98.9131040  91.3380629
  74.9636869 101.1628815  81.1344845  75.6845232 101.5410068  80.6308562
  74.3402173 101.8817692  81.2379823  79.1067992 101.8673964  82.0703177
  79.3231606 102.7498602  81.7692005  78.6262059 101.4760177  81.3408819
  73.8467213 104.8259677  88.6473922  73.7011794 105.1399980  89.5398203
  73.3692417 105.4444577  88.0944820  75.7063596 101.8162225  88.6954811
  75.6925165 100.9203318  88.3587109  76.4236024 101.8232889  89.3293097
  77.5589727 102.2499565  90.7407939  77.3007505 103.1716636  90.7392269
  77.0274767 101.8530000  91.4308403  82.5035916 115.3550352  83.5198024
  82.6772793 114.7896775  82.7671877  82.9964807 116.1551247  83.3377514
  68.3212876 107.3665021  91.5861583  67.7766344 108.1424829  91.7181857
  69.1992225 107.7135826  91.4280704  75.1100492 100.6976605  83.9642381
  75.2316403  99.7693251  84.1633269  74.8202535 100.7115291  83.0520697
  77.9791683  98.3831516  87.1009101  78.0013379  98.4470849  86.1461081
  78.3959742  97.5436024  87.2949608  88.3575307 108.1186775  85.1388324
  88.8006453 107.3694100  84.7407447  87.4801817 108.1096912  84.7562056
  83.4911088 114.6717117  80.6194922  84.1861993 115.2923809  80.8382237
  83.8334238 113.8212468  80.8947300  69.1078897 106.4934918  94.4791740
  68.3660634 106.6417553  95.0656370  68.7871642 106.7543183  93.6158489
  85.3902511 112.1216822  82.1482253  85.9153836 112.4604095  81.4231573
  85.3024864 111.1863838  81.9645388  77.0522560 116.0350896  94.2772130
  77.3609687 115.7900043  95.1494829  77.8498042 116.2397534  93.7891000
  77.0743172 118.1888806  86.5077506  76.6348162 117.6965184  87.2010363
  77.8251289 117.6461773  86.2669582  69.5535511 114.3800346  86.5102134
  70.3793531 114.0804118  86.1300778  69.2029563 113.6107969  86.9591923
  74.5217044 113.7326815  88.5799808  73.8997054 113.0697520  88.2802036
  75.1921911 113.7587946  87.8973456  67.7544116 112.2986673  87.4691068
  66.9176025 111.8708847  87.2875069  67.7267762 112.4919116  88.4061859
  74.5941572 102.2108603  98.1732314  74.6429727 103.0870725  97.7910084
  75.1364086 101.6685996  97.6003957  85.1994293 109.6042192  94.7666180
  85.2492297 109.4392200  95.7081703  85.0908216 108.7369451  94.3764060
  74.0830551 112.2830738  82.0558269  74.2318672 112.9666202  81.4024941
  74.8896995 112.2635828  82.5707724  82.4898055 105.5873120  96.0825486
  83.3907918 105.4479585  95.7909484  82.5646029 105.7527575  97.0223664
  76.8240860 102.9639975  94.9278673  75.9544170 103.2573541  94.6561261
  77.0600341 103.5480420  95.6485936  86.7012489 112.0239134  95.0108201
  86.4097298 112.3869114  95.8471662  86.0884621 111.3106142  94.8321533
  87.9008172 109.5892014  87.5310771  88.7355063 110.0281818  87.6948332
  88.0367300 109.1130667  86.7119017  84.9499678 107.1471748  93.4788259
  85.4253799 107.3399395  92.6707111  84.0265243 107.2030934  93.2331643
  71.8383184 108.3095916  83.0619338  71.5929226 107.4058246  83.2599548
  72.0079099 108.3113066  82.1198816  79.5279894  99.1819592  92.4444093
  80.0461838  99.9180619  92.1190582  79.1735027  99.4883585  93.2790852
  71.1078832 104.0424273  80.5605499  70.4148077 104.1168628  79.9045535
  70.8630584 103.2784617  81.0827016  79.7792488  95.6019874  87.9644990
  80.0594242  94.9343064  88.5905416  80.5643095  95.7948970  87.4519654
  77.5825957 114.7778868  79.5270016  77.0099924 115.3969056  79.0740488
  78.1558750 115.3278230  80.0609938  83.6501347 104.0237508  91.7116565
  84.6018770 104.1235606  91.7328789  83.4804797 103.2315777  92.2214649
  81.6715726 101.1093092  91.8975966  81.0765658 101.3898104  91.2022454
  81.3865423 101.5986993  92.6692707  80.8023217 115.0616019  80.6578598
  81.7353890 114.9961580  80.8611474  80.7146429 115.8972285  80.1993131
  83.4311233 114.3781889  77.6182546  83.3524865 114.0441752  78.5118304
  84.2520900 114.8703657  77.6174018  86.1289424 107.2443628  90.8258864
  86.0965745 106.3059629  91.0118548  86.7390048 107.3227665  90.0924689
  77.9672755 106.1139681  76.8686069  78.9131860 105.9845889  76.9374487
  77.5887000 105.3754343  77.3455497  86.2783913 104.0354672  90.8717148
  85.7622962 103.2513128  90.6847077  87.1623861 103.7073388  91.0363667
  83.9394640  97.7795687  86.8312960  83.7419461  97.4710775  87.7156292
  84.5494345  98.5057326  86.9610890  91.9465974 108.3059635  89.9664901
  92.6769363 108.0444923  90.5272605  91.3372920 107.5688357  90.0066969
  90.0281271 106.4467498  90.5639352  89.3014435 106.3123463  89.9555844
  89.6128558 106.7544326  91.3696071  77.8511448 110.1657427  98.3286726
  78.7714457 110.3436026  98.5226772  77.8161031 109.2213473  98.1766425
  76.1515672 104.0389658  76.8040954  75.2447128 103.7422770  76.8803667
  76.4291653 103.7419476  75.9375240  67.0693613 105.3596021  87.2540000
  66.7496397 104.5061329  86.9614374  66.5227041 105.5744599  88.0097967
  70.8473520 108.0758462  90.9709507  71.0659530 109.0075570  90.9897540
  71.2599294 107.7166436  91.7564311  77.7677738  98.5826547  82.9585195
  76.9578466  98.2373632  83.3340441  78.4562155  98.2734091  83.5472807
  79.6968286  97.6604594  84.5809492  80.2499325  98.0800047  85.2399515
  79.9338373  96.7340342  84.6232448  75.7201386 103.6491668 100.3612256
  75.6198113 104.5986025 100.2924347  75.5022928 103.3209907  99.4888326
  74.9214457 100.8976593  76.9452933  75.7833621 101.2231491  77.2048750
  75.1064801 100.1108089  76.4325999  66.9381873 108.9798932  89.2233122
  66.2445344 108.5652885  88.7103076  67.6854864 109.0219469  88.6266541
  83.0747094  99.7705119  84.0888156  82.4945763 100.4289923  83.7066208
  82.8083026  98.9482464  83.6775573  81.5250660  99.1710177  86.2909476
  82.0250438  99.2826711  85.4823795  82.1686268  98.8671230  86.9310285
  75.5832656 107.0788807  99.1777317  75.0999737 107.8789167  99.3841206
  75.6693595 107.0896751  98.2244761  68.8518615 108.9117186  87.0999137
  68.8289303 109.0104873  86.1481020  69.1619252 109.7582337  87.4216303
  71.5105993 110.9693341  91.2145751  72.4649247 110.9377284  91.1475683
  71.3118517 110.5083965  92.0295977  72.1005375 109.5394457  93.7816549
  72.9198264 110.0338536  93.8051386  72.3742183 108.6226425  93.7534116
  81.8571972 101.9305210  83.1444504  80.9697827 102.2154860  82.9264699
  82.2725961 101.7698973  82.2971781  85.2086508 101.9551731  86.8598843
  85.9846898 102.4448183  87.1323460  84.4834642 102.3809785  87.3170713
  87.6459066 102.6679350  87.9172784  88.2403557 102.4275086  87.2066092
  87.7185650 101.9486480  88.5446320  69.8656222 116.5112961  88.2315949
  69.7310690 115.7513362  87.6653947  69.4488284 117.2353861  87.7644738
  81.0015185 111.6949884  77.2392524  81.7051035 111.8999887  77.8550180
  80.2777834 112.2626646  77.5041608  81.8312995 107.4459746  83.3594794
  81.7748197 107.9028297  82.5202427  82.3841338 106.6850430  83.1817637
  85.6417801 103.2349477  84.1844914  85.3854735 102.8346113  85.0153122
  85.0170669 103.9493271  84.0595053  89.9530139 105.9745551  86.6916205
  89.3929697 106.0438740  87.4647767  89.3473642 105.7986535  85.9715702
  73.0225348 117.4082278  88.4434392  72.9057732 118.3527710  88.3413082
  72.2017794 117.1055839  88.8320191  82.9101882 112.1332413  79.2890984
  83.7447486 111.7013612  79.1068459  82.7486225 111.9614427  80.2167879
  82.5647775 108.6364527  80.6547324  82.5096578 108.4708798  79.7135768
  81.9393830 109.3440560  80.8109513  67.3540290 103.8732591  94.4808746
  67.9999153 103.3631545  94.9695971  67.1457441 104.6101273  95.0552171
  75.8743900  98.1372636  80.2332642  75.8622570  99.0814476  80.3900913
  76.7667322  97.9542781  79.9392103  74.0479862 118.0610540  91.6590320
  74.9507109 118.0934150  91.9756815  73.8217232 117.1310991  91.6736656
  75.8033464 116.8141526  88.3200399  74.8529095 116.8143388  88.2064771
  76.1065950 116.0674261  87.8036433  79.6896020  94.7315412  84.4878579
  78.9228415  94.1773899  84.6335261  80.1006724  94.8037281  85.3492730
  71.6937781 101.0200208  98.5783760  72.5569242 100.6637013  98.7887085
  71.1203191 100.6814103  99.2659164  88.3475864 122.6029493  89.3207686
  88.0094375 122.4870557  88.4328221  89.2165632 122.2020658  89.3008692
  84.2062679 124.4564969  85.3104577  83.6427545 124.3654906  84.5420864
  84.0915075 123.6364874  85.7907069  81.7527111 125.9516161  88.1488797
  82.5448403 125.6106985  87.7335096  81.9923762 126.0611136  89.0690950
  83.7117865 125.2125074  81.0206176  84.4848741 124.6654061  80.8819052
  84.0643264 126.0769323  81.2320637  86.0484143 121.3717740  78.6524626
  86.3009664 120.8499261  77.8908089  85.1108702 121.2083886  78.7551309
  91.0927426 120.3753518  86.4599369  91.8790515 119.9572942  86.1089786
  91.3566130 121.2799611  86.6281017  91.2637503 125.8126369  81.1588026
  90.6283336 125.8860995  81.8708931  90.9334910 126.4019968  80.4807105
  96.4935853 120.3128752  87.3632348  97.2261025 119.7427968  87.5970177
  95.7375209 119.9250352  87.8038853  85.7680432 123.2745846  80.8549001
  85.6516690 122.5990749  81.5230085  85.8782692 122.7878220  80.0381154
  88.1111973 122.7355993  84.5595690  87.7470180 122.2086614  85.2708611
  88.9679089 122.3454462  84.3862175  94.0161273 114.0250326  91.8226956
  93.6844598 114.8945737  91.5988171  93.4206887 113.7086610  92.5020987
  87.7517460 117.7645893  79.5557039  87.9191862 118.6326129  79.9227510
  87.5614629 117.9273175  78.6318328  83.9605274 122.6776669  87.2559573
  83.0355771 122.5452883  87.4637265  84.2089688 123.4570888  87.7529516
  87.7306681 120.2203550  80.5403705  87.6106306 120.6660601  81.3789186
  87.0359269 120.5688868  79.9817243  81.3214086 122.3209942  88.0903362
  81.4506467 122.5744421  89.0042774  80.6411537 122.9137650  87.7708017
  93.4291747 120.6925024  81.3684039  94.3409603 120.9252410  81.1931737
  92.9201394 121.2762068  80.8059118  90.7727722 116.8683059  89.6173900
  89.9112201 117.1664313  89.9090638  90.7990156 117.0853458  88.6854933
  87.5889291 125.4125250  86.0247706  88.0527637 125.6912953  85.2352328
  87.3246089 124.5108695  85.8420797  84.4813372 124.9596732  88.9627469
  85.0514729 125.3884000  88.3244954  85.0721484 124.6779316  89.6611655
  86.5258177 121.5348402  82.8337271  87.2282220 121.9869446  83.3011197
  86.1938806 120.8932221  83.4617164  80.2683511 119.7931955  88.1354405
  79.4782565 120.0489484  87.6594515  80.7594758 120.6080293  88.2406445
  82.2198256 120.1576534  85.0937881  81.4229420 120.2695229  85.6121377
  81.9923849 120.4963187  84.2278772  78.5521214 120.0462446  90.5669395
  78.8029252 120.9309455  90.8326971  79.0880762 119.8667047  89.7944487
  87.7651942 128.3489345  82.9099376  87.6297616 129.1940881  83.3384224
  88.3061754 128.5508623  82.1465310  81.2181339 125.8664783  83.4827301
  81.7305860 126.6608033  83.6332866  81.8704052 125.1691074  83.4160903
  83.0276224 128.9830539  85.5650055  83.2042852 129.9048504  85.3771038
  83.8233057 128.6688959  85.9944434  91.1144405 111.8719907  91.4398270
  90.7708675 112.7621549  91.3637380  91.4823368 111.6821565  90.5767855
  79.1830256 124.1953437  84.2586872  80.0205478 124.6050446  84.0420580
  79.3608524 123.2552880  84.2287066  91.0794688 121.8628518  79.9470705
  90.5641311 122.6333123  80.1859092  90.8071996 121.1893654  80.5703766
  88.6641799 116.7078219  85.0055943  87.8083395 116.3185069  84.8261582
  89.0768751 116.7870180  84.1455729  90.1940946 114.2424562  89.4047503
  89.6905741 114.2054697  88.5915308  90.4871553 115.1517305  89.4644160
  86.4383832 114.3263292  88.4113685  87.3036828 114.1306100  88.0519574
  86.5061340 114.0973644  89.3383042  90.8680991 119.7355610  81.7730486
  90.5631127 120.0501759  82.6240629  91.8211433 119.8137030  81.8157819
  89.3127423 125.8945833  83.4223440  88.7848785 125.1598593  83.1096678
  88.8114926 126.6720510  83.1763408  84.0446151 116.5565500  85.7830052
  84.6189903 116.3340681  85.0503245  84.6317133 116.6254194  86.5358653
  93.1025728 122.4439227  86.5894428  93.6157610 123.0769218  87.0916138
  93.7526952 121.8440422  86.2237788  84.3715738 118.5869961  79.8025937
  83.5353050 118.9244647  80.1235212  84.2320507 118.4518941  78.8653074
  86.3468818 113.4306749  84.5105121  85.6933231 113.1155766  83.8861736
  86.3049292 112.8082489  85.2364944  87.4580023 123.7126044  76.4258413
  86.5507085 123.4815297  76.6249562  87.9551055 122.9163663  76.6132395
  89.5806559 119.9188682  88.8352769  88.6629120 120.1403629  88.6774457
  89.9966702 119.9934993  87.9764476  90.3641606 121.3180098  83.9655449
  91.1113425 121.8301495  83.6562571  90.6333196 120.9964151  84.8259842
  88.6368257 123.8138639  80.9482403  87.7279476 123.5297671  81.0454873
  88.6663340 124.2337717  80.0885710  92.8120444 118.3537214  85.9474238
  92.0743200 117.8414600  86.2784481  93.0647217 117.9137596  85.1357515
  92.9132071 111.1313466  86.5416007  93.2190948 110.2710830  86.2541923
  93.6384676 111.7231086  86.3415001  79.2056427 121.5344153  84.9297605
  79.0080827 120.9413513  84.2048672  78.6503091 121.2296363  85.6473544
  87.1853151 121.4267259  87.0492199  87.2401760 120.4741096  86.9734675
  86.3744353 121.5826698  87.5333497  88.3344344 125.3547382  78.2870482
  87.8963774 124.6383241  77.8276119  89.0754785 125.5823497  77.7255573
  85.1245511 120.0444319  84.8082577  84.3113376 120.3438489  85.2147770
  85.6204505 119.6500008  85.5257060  84.6159585 117.6162674  90.4243812
  85.2558965 117.4751434  89.7266776  83.7837116 117.3297188  90.0482414
  85.3919889 126.9165105  86.5378805  86.1860488 126.4215425  86.3361380
  84.6811582 126.3882968  86.1746510  81.7002653 121.0608187  82.6138557
  80.7700241 120.9992642  82.8308520  81.7960125 120.5384139  81.8175199
  81.6188202 117.5862999  85.2016799  81.8795019 118.5008333  85.0925960
  82.4405374 117.1187442  85.3513412  83.0913127 119.0000757  92.3715624
  83.7636181 118.7918119  91.7228273  82.2642914 118.8022843  91.9320856
  92.4555572 124.2131764  77.8802539  91.8384743 123.4878592  77.7835592
  91.9872061 124.9741124  77.5369614  84.2454118 118.4317188  77.0023844
  83.3683584 118.3105989  76.6386090  84.7211871 117.6403266  76.7502732
  75.7656258 123.2194348  87.0965351  76.4527298 122.9056078  86.5086366
  75.6104387 124.1235713  86.8232602  80.5690980 118.1084544  91.5250374
  80.4849169 117.5010214  90.7900784  79.7473687 118.5993563  91.5259871
  90.7414694 116.5938108  86.8920570  91.2383394 115.8408070  86.5721640
  89.9701676 116.6302425  86.3263779  91.8244475 125.3509795  84.4658993
  90.8900754 125.4711258  84.2963697  92.0021143 124.4482262  84.2019003
  87.3249663 118.7355491  86.6192254  86.9547450 118.1826531  87.3073160
  87.8208755 118.1313624  86.0667254  95.2117026 121.1927115  85.0009027
  95.6777478 122.0255106  84.9269330  95.6624527 120.7272096  85.7054286
  93.1833689 113.5607701  89.0399928  92.2696769 113.7911928  89.2082135
  93.6126790 113.6446146  89.8913961  75.3424234 121.2994941  89.3682818
  75.3808334 120.7658532  90.1619936  74.8364527 120.7730147  88.7493795
  82.7214997 116.1459482  92.8645360  82.7856323 117.0074313  92.4522758
  82.6582117 115.5333483  92.1317719  78.9732812 120.0259043  82.4436749
  79.2686253 119.1169722  82.3903803  78.0720848 120.0046783  82.1217752
  82.5027059 118.1015040  88.4264298  81.7813645 118.7151008  88.2871771
  83.2920315 118.6372805  88.3480944  80.7020653 117.7073141  82.5676074
  80.3733360 116.8270520  82.3851180  81.0560024 117.6520810  83.4552464
  83.8162477 117.9946111  82.9351552  84.1558549 118.5232032  82.2130160
  84.2634597 118.3326517  83.7110119  86.5105917 116.3783162  92.3854620
  86.1702738 115.5790975  92.7875300  85.8044924 116.6784872  91.8131453
  87.1622389 113.4632474  90.8381943  87.9848459 112.9892952  90.7160834
  87.4060453 114.2422958  91.3380629  85.8030624 116.4920732  81.1344845
  86.5238986 116.8701985  80.6308562  85.1795928 117.2109609  81.2379823
  89.9461747 117.1965881  82.0703177  90.1625361 118.0790519  81.7692005
  89.4655814 116.8052095  81.3408819  84.6860968 120.1551595  88.6473922
  84.5405549 120.4691898  89.5398203  84.2086172 120.7736495  88.0944820
  86.5457351 117.1454143  88.6954811  86.5318920 116.2495236  88.3587109
  87.2629779 117.1524806  89.3293097  88.3983482 117.5791483  90.7407939
  88.1401259 118.5008554  90.7392269  87.8668522 117.1821917  91.4308403
  79.1606630 122.6956939  91.5861583  78.6160098 123.4716747  91.7181857
  80.0385980 123.0427744  91.4280704  85.9494247 116.0268523  83.9642381
  86.0710158 115.0985169  84.1633269  85.6596289 116.0407209  83.0520697
  88.8185437 113.7123433  87.1009101  88.8407134 113.7762766  86.1461081
  89.2353496 112.8727942  87.2949608  80.3929266 129.7092264  86.5102134
  81.2187286 129.4096036  86.1300778  80.0423318 128.9399886  86.9591923
  78.5937871 127.6278591  87.4691068  77.7569779 127.2000765  87.2875069
  78.5661516 127.8211034  88.4061859  84.9224306 127.6122656  82.0558269
  85.0712426 128.2958120  81.4024941  85.7290749 127.5927746  82.5707724
  82.6776939 123.6387833  83.0619338  82.4322981 122.7350163  83.2599548
  82.8472853 123.6404984  82.1198816  90.3673649 114.5111510  92.4444093
  90.8855592 115.2472537  92.1190582  90.0128781 114.8175503  93.2790852
  81.9472586 119.3716191  80.5605499  81.2541831 119.4460546  79.9045535
  81.7024338 118.6076534  81.0827016  90.6186243 110.9311792  87.9644990
  90.8987997 110.2634981  88.5905416  91.4036850 111.1240888  87.4519654
  88.8066510 121.4431599  76.8686069  89.7525614 121.3137807  76.9374487
  88.4280755 120.7046261  77.3455497  94.7788394 113.1087605  86.8312960
  94.5813215 112.8002693  87.7156292  95.3888100 113.8349244  86.9610890
  86.9909427 119.3681575  76.8040954  86.0840882 119.0714688  76.8803667
  87.2685408 119.0711393  75.9375240  77.9087367 120.6887939  87.2540000
  77.5890152 119.8353247  86.9614374  77.3620795 120.9036517  88.0097967
  81.6867275 123.4050380  90.9709507  81.9053285 124.3367487  90.9897540
  82.0993049 123.0458354  91.7564311  88.6071493 113.9118465  82.9585195
  87.7972221 113.5665550  83.3340441  89.2955910 113.6026009  83.5472807
  90.5362041 112.9896512  84.5809492  91.0893080 113.4091965  85.2399515
  90.7732127 112.0632260  84.6232448  85.7608212 116.2268510  76.9452933
  86.6227376 116.5523409  77.2048750  85.9458556 115.4400006  76.4325999
  77.7775627 124.3090850  89.2233122  77.0839099 123.8944803  88.7103076
  78.5248618 124.3511387  88.6266541  93.9140848 115.0997037  84.0888156
  93.3339517 115.7581841  83.7066208  93.6476781 114.2774381  83.6775573
  92.3644414 114.5002095  86.2909476  92.8644193 114.6118629  85.4823795
  93.0080022 114.1963147  86.9310285  79.6912370 124.2409104  87.0999137
  79.6683058 124.3396791  86.1481020  80.0013006 125.0874255  87.4216303
  92.6965726 117.2597127  83.1444504  91.8091581 117.5446778  82.9264699
  93.1119715 117.0990891  82.2971781  96.0480262 117.2843648  86.8598843
  96.8240652 117.7740101  87.1323460  95.3228396 117.7101702  87.3170713
  98.4852821 117.9971267  87.9172784  99.0797312 117.7567003  87.2066092
  98.5579404 117.2778398  88.5446320  92.6706750 122.7751663  83.3594794
  92.6141951 123.2320215  82.5202427  93.2235092 122.0142348  83.1817637
  96.4811556 118.5641395  84.1844914  96.2248490 118.1638031  85.0153122
  95.8564424 119.2785189  84.0595053  93.4041529 123.9656444  80.6547324
  93.3490333 123.8000716  79.7135768  92.7787584 124.6732477  80.8109513
  78.1934044 119.2024509  94.4808746  78.8392908 118.6923463  94.9695971
  77.9851195 119.9393190  95.0552171  86.7137655 113.4664553  80.2332642
  86.7016324 114.4106393  80.3900913  87.6061076 113.2834699  79.9392103
  90.5289774 110.0607330  84.4878579  89.7622170 109.5065817  84.6335261
  90.9400479 110.1329199  85.3492730  26.5023632   7.6812681  76.1091468
  27.1402042   7.5619428  75.4054808  26.3844475   8.6293525  76.1679420
  23.3113338   7.6340109  76.0452992  22.9731850   7.5181174  75.1573527
  24.1803106   7.2331274  76.0253998  19.1700154   9.4875586  72.0349883
  18.6065019   9.3965523  71.2666171  19.0552549   8.6675490  72.5152376
  23.7933121   8.7874961  82.0039198  23.7821762   8.3927759  81.1319702
  23.9553761   8.0541034  82.5972969  16.7164586  10.9826777  74.8734104
  17.5085878  10.6417602  74.4580403  16.9561236  11.0921752  75.7936257
  24.7499713  13.1546553  67.3464348  24.0987692  13.7400634  66.9598362
  25.5444075  13.6852748  67.4059386  18.6755340  10.2435690  67.7451483
  19.4486216   9.6964678  67.6064358  19.0280739  11.1079940  67.9565944
  20.5140382  11.5712073  80.9518382  20.2230248  12.4757704  80.8365048
  21.1497367  11.6128600  81.6662451  21.4396589   8.9488921  77.5419741
  22.0360161   8.7244944  76.8276704  21.4971561   8.2073667  78.1445189
  21.0121617   6.4028357  65.3769932  21.2647138   5.8809878  64.6153395
  20.0746177   6.2394502  65.4796616  26.0564900   5.4064135  73.1844676
  26.8427990   4.9883558  72.8335093  26.3203605   6.3110227  73.3526324
  26.2274978  10.8436985  67.8833333  25.5920811  10.9171612  68.5954237
  25.8972384  11.4330584  67.2052412  31.4573327   5.3439368  74.0877654
  32.1898499   4.7738585  74.3215484  30.7012683   4.9560969  74.5284160
  20.7317906   8.3056463  67.5794307  20.6154164   7.6301366  68.2475392
  20.8420166   7.8188836  66.7626460  23.0749447   7.7666610  71.2840997
  22.7107654   7.2397231  71.9953918  23.9316563   7.3765079  71.1107482
  28.9798748  -0.9439058  78.5472263  28.6482073  -0.0743647  78.3233478
  28.3844361  -1.2602774  79.2266293  22.7154934   2.7956509  66.2802345
  22.8829336   3.6636746  66.6472816  22.5252103   2.9583791  65.3563634
  25.4730267  11.2573488  77.9468176  25.1730990  12.1598527  77.8383983
  25.1281327  10.9905671  78.7989328  18.9242749   7.7087285  73.9804880
  17.9993245   7.5763499  74.1882572  19.1727162   8.4881504  74.4774822
  28.8727411   3.7756028  75.6265613  27.9644288   3.7071437  75.3324374
  28.8215007   4.2527973  76.4547438  22.6944155   5.2514167  67.2649012
  22.5743780   5.6971218  68.1034492  21.9996743   5.5999485  66.7062550
  16.2851560   7.3520559  74.8148669  16.4143941   7.6055038  75.7288081
  15.6049011   7.9448267  74.4953324  20.4551047  18.0217809  70.9139143
  20.3775077  18.9725634  70.9927624  19.8512691  17.6763681  71.5714070
  22.9468277   5.1945674  83.5700510  22.1701611   5.7539594  83.5603375
  23.5858840   5.6802457  84.0915380  30.7389058   1.9772467  77.4043487
  30.0963438   2.2705000  76.7583281  30.2343986   1.8625387  78.2096683
  28.3929221   5.7235640  68.0929346  29.3047077   5.9563027  67.9177044
  27.8838868   6.3072684  67.5304425  21.2014649   8.0031127  83.1318477
  21.9429334   8.5416171  82.8553301  20.4951635   8.6297416  83.2890029
  26.6769989  10.1460268  81.7290639  27.0853345   9.7042678  80.9845271
  25.9547250   9.5712895  81.9824832  23.0301059   5.0832875  79.1024196
  23.8762254   5.5072288  79.2458845  22.9699697   4.4266499  79.7962759
  26.9998803  10.7061458  75.4842928  26.3707666  10.8707173  74.7818995
  26.6124466  11.1203068  76.2553892  30.8788035  11.6415896  72.8387291
  30.1939074  12.0214798  72.2884325  30.9631885  12.2511223  73.5719239
  26.1800504   2.7437243  80.7605369  25.9361436   3.4979304  80.2239645
  26.4560435   3.1222591  81.5952616  28.1338967   9.2875855  79.4382635
  28.3455862   9.9307615  78.7617016  28.0868715   8.4538172  78.9704565
  25.7365196   1.8993676  76.3419207  24.8749675   2.1974930  76.6335945
  25.7627631   2.1164075  75.4100240  22.5526765  10.4435867  72.7493013
  23.0165111  10.7223570  71.9597635  22.2883563   9.5419311  72.5666103
  19.4450846   9.9907348  75.6872776  20.0152203  10.4194616  75.0490260
  20.0358958   9.7089933  76.3856962  21.4895651   6.5659019  69.5582578
  22.1919695   7.0180063  70.0256504  21.1576280   5.9242838  70.1862471
  19.9376013   5.1570776  83.9333787  19.3074674   5.8387056  84.1669184
  19.8312101   5.0453857  82.9886925  29.2484795  12.1647811  77.6104992
  30.0702239  11.7627998  77.3287674  29.2447198  12.0616045  78.5621108
  23.0141398  11.7131854  79.7665703  23.0785831  12.1752261  80.6023874
  22.3052322  11.0829219  79.8948012  37.3390788   8.5086559  73.9589964
  36.5854496   7.9393957  73.8033968  37.4738329   8.4749224  74.9060598
  22.7289416  13.3799962  69.6344683  22.5935091  14.2251497  70.0629531
  23.2699229  13.5819239  68.8710617  16.1818813  10.8975400  70.2072608
  16.6943334  11.6918650  70.3578173  16.8341526  10.2001690  70.1406210
  17.9913698  14.0141156  72.2895361  18.1680326  14.9359121  72.1016345
  18.7870532  13.6999575  72.7189741  24.3557892  14.0023528  83.7645025
  23.9121747  13.2159907  83.4465930  25.0175106  14.1902679  83.0988916
  19.1145014  15.5319330  78.2905704  19.6652439  15.4036393  77.5182697
  18.2756489  15.8314219  77.9400596  26.4539130  14.2826328  81.7926426
  26.4357606  15.1035209  81.3006695  27.3759051  14.1580403  82.0176567
  22.9112185  11.7970457  82.6349935  23.4440521  11.0358746  82.4049243
  22.3826266  11.5044109  83.3774089  26.0432162   6.8939135  66.6716012
  25.5278786   7.6643739  66.9104399  25.7709471   6.2204271  67.2949073
  31.0166436   9.6471489  68.6069185  30.2395879   9.3082649  68.1624347
  31.6957917   9.6524112  67.9324150  25.8318465   4.7666227  68.4975793
  25.5268601   5.0812376  69.3485936  26.7848908   4.8447647  68.5403126
  24.2764897  10.9256450  70.1468747  23.7486259  10.1909210  69.8341984
  23.7752400  11.7031126  69.9008715  29.2557743   9.1205470  75.2635793
  28.5981418   9.8104732  75.3515922  30.0598143   9.5101902  75.6069779
  28.0663202   7.4749843  73.3139735  28.5795084   8.1079835  73.8161444
  28.7164426   6.8751039  72.9483095  22.4217498   8.7436660  63.1503720
  21.5144559   8.5125914  63.3494869  22.9188529   7.9474279  63.3377701
  25.3285576  17.4534167  66.0700406  24.6547275  17.7565864  66.6785364
  25.7151398  18.2563248  65.7205863  24.5444033   4.9499299  75.5598075
  23.6266594   5.1714246  75.4019763  24.9604177   5.0245609  74.7009783
  25.3279081   6.3490714  70.6900756  26.0750900   6.8612112  70.3807878
  25.5970670   6.0274767  71.5505149  23.6005731   8.8449255  67.6727710
  22.6916950   8.5608288  67.7700180  23.6300815   9.2648334  66.8131017
  28.8324998  12.4555845  71.4418877  28.3787325  11.6146754  71.4984068
  28.2018965  13.0917243  71.7793658  27.7757918   3.3847831  72.6719545
  27.0380675   2.8725217  73.0029787  28.0284691   2.9448212  71.8602822
  27.2757938  14.2932341  72.3768696  27.5680912  14.8537398  71.6581061
  27.7856558  14.5860902  73.1321855  22.1490625   6.4577876  73.7737505
  22.2039235   5.5051712  73.6979982  21.3381827   6.6137315  74.2578804
  23.2981819  10.3857999  65.0115788  22.8601249   9.6693858  64.5521426
  24.0392260  10.6134114  64.4500880  20.0882985   5.0754935  71.5327884
  19.2750850   5.3749106  71.9393076  20.5841979   4.6810624  72.2502366
  22.2391563  15.0712692  73.4662149  22.1967742  15.2973539  72.5370681
  23.1554262  14.8376067  73.6147950  25.6857197   5.5396760  80.3642778
  26.0406584   5.7668233  81.2237244  26.3329328   5.8715137  79.7420033
  31.4154934   8.6615196  71.0692107  31.2772832   8.8516792  70.1413296
  31.0591152   9.4234579  71.5260158  31.4424313  10.7291723  76.0803378
  31.8760820  10.6367012  76.9286433  32.1555894  10.7049223  75.4423394
  20.3557364  11.9475721  73.2624111  21.1497962  11.4526042  73.0606686
  19.6449056  11.4193585  72.8991817  25.1752208  14.3293817  77.6136479
  25.2289230  14.8984753  78.3814195  24.3066989  14.4995702  77.2490516
  32.3039863  10.7715423  78.6136264  32.4975753  11.6761234  78.8595539
  32.2040481  10.3122843  79.4474849  27.3654971  10.9222166  84.1877144
  27.2140478  10.6932718  83.2707228  27.3559651  11.8792768  84.2008489
  24.1340308   8.4954079  79.1723411  25.0632368   8.6465239  78.9992378
  23.7131338   8.5838100  78.3172057  22.9328640  12.5204743  76.9421949
  22.7939725  12.1523528  77.8147887  22.1443236  13.0352383  76.7705906
  23.5276792  17.6213840  68.2847485  23.7028547  17.1501883  69.0993108
  22.8409580  18.2479606  68.5128746  24.4833855  11.8986346  74.3310786
  24.1483687  11.8587116  75.2268436  23.9837800  11.2331062  73.8581197
  18.4578099   7.3053976  79.8563367  18.3197897   6.5734215  80.4574907
  19.3683022   7.2162876  79.5747555  27.4193046   9.2442380  64.6047846
  26.8022217   8.5189209  64.5080899  26.9509535  10.0051741  64.2614920
  21.0860399   7.0173935  79.3447047  21.7960018   6.3767128  79.3033666
  21.0429708   7.2686830  80.2673228  29.0747178  13.9541289  82.2653626
  29.0159724  13.2700509  81.5984209  29.4766696  14.6960279  81.8134252
  18.0937877  20.7703203  75.0587345  18.3334475  21.4021727  75.7366364
  17.2507073  20.4191243  75.3452705  29.0764585  11.9180873  80.4967606
  28.1891364  11.5806794  80.6194005  29.6463136  11.1863904  80.7336371
  22.6065739  16.5782325  77.4628849  22.5335910  17.3837297  77.9748154
  22.1643132  16.7774291  76.6376871  22.3955518  15.8154095  70.9731671
  21.6123040  16.3575775  71.0669895  23.0948263  16.3328075  71.3725912
  25.7052168   1.6248725  73.6165876  26.2020868   0.8718687  73.2966946
  24.9339150   1.6613041  73.0509085  33.5581926   7.3289090  75.2584168
  33.5471802   8.2113806  74.8878101  32.6899305   6.9760641  75.0638705
  25.0664422  16.4769159  79.6187008  25.7792394  17.1116624  79.5462909
  24.5754451  16.5733025  78.8027010  26.7881949  10.3820412  71.1904300
  25.8538228  10.5021874  71.0209004  26.9658618   9.4792879  70.9264309
  22.2887137   3.7666108  73.3437561  21.9184925   3.2137148  74.0318466
  22.7846230   3.1624241  72.7912561  30.1754500   6.2237731  71.7254334
  30.6414953   7.0565723  71.6514636  30.6262001   5.7582713  72.4299592
  20.1176336  14.2263603  80.4392579  20.8185795  14.8600086  80.5921973
  19.6471451  14.5678334  79.6788218  28.2430732  12.5681552  68.7240486
  28.5190575  12.4538147  69.6334360  27.3735230  12.1699037  68.6852659
  27.9177622   6.7808210  78.2645129  27.2649072   7.0284117  77.6097582
  28.2958002   5.9672348  77.9307606  24.8784796  16.8167903  72.3673299
  25.0607190  15.9989559  72.8301052  25.7017782  17.0335595  71.9298189
  25.2126961  15.7436088  69.6288348  25.7414728  15.2328543  69.0158510
  25.4755181  15.4278619  70.4933881  23.9665195   7.5228021  84.7511166
  23.2905832   7.4222150  85.4213541  24.7892829   7.3667235  85.2147163
  15.7144054  13.7599958  77.3723681  16.2997491  13.0143646  77.5051586
  15.5168892  14.0703914  78.2560345  18.5682709  16.7951205  72.3886124
  17.8993084  17.2797333  71.9050164  18.4295579  17.0420425  73.3029502
  22.7087978  18.8294949  78.9868782  23.2606286  18.9926570  79.7517867
  23.0494171  19.4199386  78.3148807  27.5598852  13.6556206  84.8417437
  28.1038756  14.2686164  84.3472391  26.9785697  14.2135784  85.3584450
  25.8456365  16.7776924  75.9732464  25.7207504  15.9766664  75.4643410
  26.5035456  17.2723117  75.4846434  27.9091273  14.5785944  77.6012014
  26.9621609  14.4591295  77.5290341  28.2574046  13.6908442  77.6838276
  24.9137707  14.3738660  73.8016367  24.7662669  13.4455368  73.9823937
  25.7391200  14.3958751  73.3173442  28.5171828  15.1967219  74.8881239
  29.4418376  14.9910080  74.7505691  28.3487132  14.9483620  75.7970581
  24.9099221   2.2276498  68.7948484  25.1262835   3.1101136  68.4937312
  24.4293288   1.8362711  68.0654126  19.6498442   5.1862211  75.3719228
  19.5043023   5.5002514  76.2643510  19.1723646   5.8047112  74.8190127
  28.3067145  15.7152887  70.2443331  28.4804022  15.1499309  69.4917183
  28.7996036  16.5153781  70.0622821  34.1606536   8.4789309  71.8633631
  34.6037682   7.7296635  71.4652754  33.2833046   8.4699446  71.4807363
  29.2942317  15.0319651  67.3440229  29.9893222  15.6526344  67.5627544
  29.6365467  14.1815002  67.6192607  31.1933740  12.4819356  68.8727560
  31.7185064  12.8206629  68.1476880  31.1056093  11.5466372  68.6890694
  22.8553789  16.3953430  81.0017436  23.1640915  16.1502577  81.8740136
  23.6529271  16.6000069  80.5136307  22.8774401  18.5491340  73.2322813
  22.4379391  18.0567718  73.9255670  23.6282518  18.0064307  72.9914888
  15.3566740  14.7402881  73.2347441  16.1824760  14.4406652  72.8546085
  15.0060792  13.9710503  73.6837230  20.3248273  14.0929349  75.3045115
  19.7028282  13.4300054  75.0047343  20.9953140  14.1190481  74.6218762
  13.5575345  12.6589207  74.1936375  12.7207253  12.2311381  74.0120376
  13.5298990  12.8521650  75.1307166  30.8827646  13.1152260  84.1778758
  30.0923190  13.0976399  83.6383257  30.6461001  13.6540554  84.9327794
  31.0025521   9.9644726  81.4911486  31.0523526   9.7994734  82.4327009
  30.8939445   9.0971985  81.1009367  19.8861780  12.6433272  68.7803575
  20.0349900  13.3268737  68.1270248  20.6928224  12.6238362  69.2953031
  28.2929284   5.9475654  82.8070793  29.1939147   5.8082119  82.5154791
  28.3677258   6.1130109  83.7468971  22.6272089   3.3242509  81.6523979
  21.7575398   3.6176075  81.3806568  22.8631569   3.9082954  82.3731243
  32.5043718  12.3841668  81.7353508  32.2128526  12.7471649  82.5716969
  31.8915849  11.6708676  81.5566840  33.7039400   9.9494548  74.2556078
  34.5386292  10.3884352  74.4193638  33.8398529   9.4733201  73.4364324
  30.7530906   7.5074283  80.2033566  31.2285028   7.7001929  79.3952417
  29.8296472   7.5633468  79.9576950  17.6414413   8.6698450  69.7864644
  17.3960455   7.7660780  69.9844854  17.8110328   8.6715600  68.8444122
  23.3857186  15.1381403  66.2515323  22.8131153  15.7571590  65.7985795
  23.9589979  15.6880764  66.7855245  29.4532575   4.3840043  78.4361871
  30.4049998   4.4838140  78.4574096  29.2836026   3.5918311  78.9459956
  27.4746955   1.4695626  78.6221272  26.8796887   1.7500639  77.9267761
  27.1896652   1.9589527  79.3938014  26.6054445  15.4218553  67.3823905
  27.5385119  15.3564114  67.5856780  26.5177658  16.2574820  66.9238438
  29.2342462  14.7384423  64.3427853  29.1556094  14.4044287  65.2363610
  30.0552129  15.2306191  64.3419325  31.9320653   7.6046162  77.5504171
  31.8996973   6.6662163  77.7363855  32.5421277   7.6830199  76.8169996
  23.7703984   6.4742215  63.5931375  24.7163089   6.3448423  63.6619793
  23.3918229   5.7356877  64.0700803  32.0815142   4.3957206  77.5962454
  31.5654190   3.6115662  77.4092383  32.9655090   4.0675922  77.7608974
  29.7425869  -1.8601779  73.5558267  29.5450690  -2.1686690  74.4401599
  30.3525574  -1.1340140  73.6856197  37.7497203   8.6662169  76.6910208
  38.4800592   8.4047457  77.2517911  37.1404149   7.9290891  76.7312276
  35.8312500   6.8070032  77.2884659  35.1045664   6.6725997  76.6801151
  35.4159787   7.1146860  78.0941377  23.6542677  10.5259961  85.0532032
  24.5745686  10.7038560  85.2472079  23.6192260   9.5816007  84.9011731
  21.9546901   4.3992192  63.5286260  21.0478357   4.1025304  63.6048974
  22.2322882   4.1022010  62.6620547  16.6504749   8.4360996  77.6954813
  16.8690759   9.3678104  77.7142847  17.0630523   8.0768971  78.4809617
  28.8778322   0.1307653  70.8133463  28.2976991   0.7892457  70.4311515
  28.6114255  -0.6915002  70.4020880  27.3281889  -0.4687289  73.0154783
  27.8281667  -0.3570754  72.2069102  27.9717497  -0.7726236  73.6555591
  21.3863885   7.4391341  85.9022624  20.9030966   8.2391701  86.1086513
  21.4724824   7.4499286  84.9490068  14.6549844   9.2719720  73.8244443
  14.6320532   9.3707408  72.8726326  14.9650481  10.1184871  74.1461609
  17.3137222  11.3295875  77.9391058  18.2680476  11.2979818  77.8720989
  17.1149746  10.8686499  78.7541284  17.9036604   9.8996991  80.5061855
  18.7229493  10.3941070  80.5296693  18.1773412   8.9828960  80.4779423
  27.6603200   2.2907744  69.8689811  26.7729055   2.5757394  69.6510006
  28.0757189   2.1301507  69.0217088  31.0117736   2.3154265  73.5844150
  31.7878127   2.8050717  73.8568767  30.2865871   2.7412319  74.0416020
  33.4490295   3.0281884  74.6418091  34.0434786   2.7877620  73.9311399
  33.5216879   2.3089015  75.2691627  15.6687451  16.8715495  74.9561256
  15.5341919  16.1115896  74.3899254  15.2519513  17.5956395  74.4890044
  26.8046414  12.0552418  63.9637831  27.5082264  12.2602421  64.5795486
  26.0809063  12.6229180  64.2286914  27.6344224   7.8062280  70.0840101
  27.5779425   8.2630831  69.2447733  28.1872567   7.0452964  69.9062944
  31.4449030   3.5952012  70.9090221  31.1885964   3.1948647  71.7398428
  30.8201898   4.3095806  70.7840360  35.7561368   6.3348085  73.4161512
  35.1960926   6.4041274  74.1893074  35.1504871   6.1589069  72.6961008
  18.8256577  17.7684812  75.1679698  18.7088961  18.7130244  75.0658388
  18.0049023  17.4658374  75.5565497  28.7133111  12.4934948  66.0136291
  29.5478715  12.0616146  65.8313766  28.5517454  12.3216961  66.9413185
  28.3679003   8.9967061  67.3792630  28.3127807   8.8311332  66.4381074
  27.7425059   9.7043094  67.5354820  25.6824911  11.3015973  86.7046193
  26.5516070  11.4756625  86.3432828  25.2031662  12.1210390  86.5821922
  19.8511091  18.4213074  78.3835627  20.7538338  18.4536684  78.7002122
  19.6248461  17.4913525  78.3981962  21.6064693  17.1744060  75.0445705
  20.6560324  17.1745922  74.9310078  21.9097179  16.4276795  74.5281740
  37.3417386  23.0104599  76.1091468  37.9795796  22.8911346  75.4054808
  37.2238229  23.9585443  76.1679420  34.1507093  22.9632027  76.0452992
  33.8125604  22.8473092  75.1573527  35.0196861  22.5623192  76.0253998
  30.0093908  24.8167503  72.0349883  29.4458773  24.7257440  71.2666171
  29.8946303  23.9967408  72.5152376  34.6326876  24.1166879  82.0039198
  34.6215516  23.7219677  81.1319702  34.7947515  23.3832951  82.5972969
  27.5558340  26.3118695  74.8734104  28.3479632  25.9709520  74.4580403
  27.7954990  26.4213670  75.7936257  35.5893467  28.4838471  67.3464348
  34.9381447  29.0692551  66.9598362  36.3837830  29.0144666  67.4059386
  29.5149094  25.5727608  67.7451483  30.2879970  25.0256595  67.6064358
  29.8674493  26.4371857  67.9565944  31.3534137  26.9003990  80.9518382
  31.0624003  27.8049621  80.8365048  31.9891121  26.9420518  81.6662451
  32.2790344  24.2780839  77.5419741  32.8753916  24.0536861  76.8276704
  32.3365315  23.5365584  78.1445189  31.8515372  21.7320274  65.3769932
  32.1040893  21.2101796  64.6153395  30.9139931  21.5686420  65.4796616
  36.8958655  20.7356053  73.1844676  37.6821744  20.3175476  72.8335093
  37.1597359  21.6402145  73.3526324  37.0668732  26.1728903  67.8833333
  36.4314565  26.2463529  68.5954237  36.7366139  26.7622502  67.2052412
  42.2967082  20.6731286  74.0877654  43.0292254  20.1030503  74.3215484
  41.5406438  20.2852886  74.5284160  31.5711661  23.6348380  67.5794307
  31.4547919  22.9593284  68.2475392  31.6813921  23.1480754  66.7626460
  33.9143202  23.0958527  71.2840997  33.5501409  22.5689148  71.9953918
  34.7710318  22.7056996  71.1107482  39.8192502  14.3852860  78.5472263
  39.4875827  15.2548271  78.3233478  39.2238116  14.0689144  79.2266293
  33.5548689  18.1248427  66.2802345  33.7223091  18.9928663  66.6472816
  33.3645858  18.2875709  65.3563634  36.3124022  26.5865406  77.9468176
  36.0124745  27.4890445  77.8383983  35.9675081  26.3197589  78.7989328
  29.7636503  23.0379203  73.9804880  28.8387000  22.9055417  74.1882572
  30.0120916  23.8173422  74.4774822  39.7121166  19.1047946  75.6265613
  38.8038043  19.0363355  75.3324374  39.6608761  19.5819891  76.4547438
  33.5337910  20.5806085  67.2649012  33.4137535  21.0263135  68.1034492
  32.8390498  20.9291402  66.7062550  27.1245314  22.6812476  74.8148669
  27.2537695  22.9346955  75.7288081  26.4442766  23.2740184  74.4953324
  31.2944802  33.3509726  70.9139143  31.2168831  34.3017551  70.9927624
  30.6906445  33.0055599  71.5714070  33.7862031  20.5237592  83.5700510
  33.0095365  21.0831512  83.5603375  34.4252594  21.0094375  84.0915380
  41.5782812  17.3064385  77.4043487  40.9357192  17.5996918  76.7583281
  41.0737741  17.1917305  78.2096683  39.2322976  21.0527558  68.0929346
  40.1440832  21.2854944  67.9177044  38.7232623  21.6364602  67.5304425
  32.0408404  23.3323045  83.1318477  32.7823088  23.8708089  82.8553301
  31.3345389  23.9589334  83.2890029  37.5163743  25.4752186  81.7290639
  37.9247099  25.0334596  80.9845271  36.7941005  24.9004813  81.9824832
  33.8694813  20.4124792  79.1024196  34.7156009  20.8364206  79.2458845
  33.8093451  19.7558417  79.7962759  37.8392558  26.0353376  75.4842928
  37.2101420  26.1999090  74.7818995  37.4518220  26.4494986  76.2553892
  41.7181790  26.9707814  72.8387291  41.0332828  27.3506715  72.2884325
  41.8025639  27.5803141  73.5719239  37.0194259  18.0729161  80.7605369
  36.7755191  18.8271221  80.2239645  37.2954189  18.4514508  81.5952616
  38.9732721  24.6167773  79.4382635  39.1849617  25.2599533  78.7617016
  38.9262470  23.7830090  78.9704565  36.5758950  17.2285594  76.3419207
  35.7143429  17.5266847  76.6335945  36.6021385  17.4455993  75.4100240
  33.3920520  25.7727784  72.7493013  33.8558865  26.0515487  71.9597635
  33.1277318  24.8711229  72.5666103  30.2844601  25.3199266  75.6872776
  30.8545958  25.7486534  75.0490260  30.8752713  25.0381850  76.3856962
  32.3289406  21.8950937  69.5582578  33.0313449  22.3471980  70.0256504
  31.9970034  21.2534755  70.1862471  30.7769767  20.4862693  83.9333787
  30.1468428  21.1678974  84.1669184  30.6705855  20.3745775  82.9886925
  26.0714740  20.1534489  74.8599711  25.2813794  20.4092018  74.3839822
  26.5625987  20.9682827  74.9651752  40.0878549  27.4939728  77.6104992
  40.9095993  27.0919916  77.3287674  40.0840952  27.3907963  78.5621108
  28.0229485  20.5179069  71.8183188  27.2260649  20.6297763  72.3366684
  27.7955077  20.8565721  70.9524079  33.8535153  27.0423772  79.7665703
  33.9179585  27.5044179  80.6023874  33.1446077  26.4121137  79.8948012
  24.3552443  20.4064980  77.2914702  24.6060481  21.2911990  77.5572278
  24.8911991  20.2269581  76.5189794  48.1784542  23.8378477  73.9589964
  47.4248251  23.2685875  73.8033968  48.3132084  23.8041141  74.9060598
  33.5683171  28.7091879  69.6344683  33.4328845  29.5543415  70.0629531
  34.1092983  28.9111157  68.8710617  30.0550510  14.7883459  86.2959038
  29.6617456  14.2349658  86.9706682  30.8716650  15.0994038  86.6865556
  27.0212568  26.2267317  70.2072608  27.5337088  27.0210568  70.3578173
  27.6735281  25.5293608  70.1406210  28.8307453  29.3433074  72.2895361
  29.0074081  30.2651038  72.1016345  29.6264286  29.0291493  72.7189741
  32.9718471  16.2041338  83.8879295  33.7128185  16.8048491  83.8083757
  33.2036394  15.4618976  83.3297337  28.1159809  21.3897705  82.1657524
  28.0013324  20.4882963  82.4664623  27.2604327  21.6361402  81.8142341
  35.1951647  29.3315446  83.7645025  34.7515501  28.5451824  83.4465930
  35.8568860  29.5194596  83.0988916  29.9538768  30.8611247  78.2905704
  30.5046193  30.7328311  77.5182697  29.1150244  31.1606136  77.9400596
  37.2932885  29.6118246  81.7926426  37.2751360  30.4327127  81.3006695
  38.2152805  29.4872321  82.0176567  33.7505939  27.1262375  82.6349935
  34.2834276  26.3650663  82.4049243  33.2220020  26.8336027  83.3774089
  36.9175634  12.2322441  78.1643576  36.5739903  13.1224083  78.0882687
  37.2854597  12.0424099  77.3013161  24.9861485  24.5555972  70.9832179
  25.8236707  24.9652980  70.7665886  25.1639752  23.6155414  70.9532372
  36.8825917  22.2231052  66.6716012  36.3672540  22.9935657  66.9104399
  36.6103225  21.5496188  67.2949073  34.4673028  17.0680753  71.7301250
  33.6114624  16.6787603  71.5506889  34.8799980  17.1472714  70.8701035
  35.9972174  14.6027096  76.1292810  35.4936970  14.5657231  75.3160615
  36.2902781  15.5119839  76.1889466  32.2415060  14.6865826  75.1358991
  33.1068057  14.4908635  74.7764881  32.3092569  14.4576178  76.0628348
  41.8560191  24.9763407  68.6069185  41.0789634  24.6374566  68.1624347
  42.5351672  24.9816030  67.9324150  36.6712220  20.0958144  68.4975793
  36.3662356  20.4104294  69.3485936  37.6242662  20.1739564  68.5403126
  35.1158652  26.2548368  70.1468747  34.5880013  25.5201127  69.8341984
  34.6146155  27.0323044  69.9008715  40.0951498  24.4497388  75.2635793
  39.4375172  25.1396650  75.3515922  40.8991897  24.8393820  75.6069779
  29.8477379  16.9168034  72.5075358  30.4221131  16.6943215  71.7748551
  30.4348362  16.9856728  73.2603960  38.9056957  22.8041761  73.3139735
  39.4188838  23.4371753  73.8161444  39.5558181  22.2042956  72.9483095
  30.1746967  18.9472495  66.5271243  29.3384279  19.2847181  66.8480518
  30.0351736  18.8121475  65.5898380  32.1500047  13.7909283  71.2350428
  31.4964459  13.4758300  70.6107042  32.1080521  13.1685023  71.9610251
  33.2611252  24.0728578  63.1503720  32.3538314  23.8417831  63.3494869
  33.7582284  23.2766197  63.3377701  36.1679331  32.7826085  66.0700406
  35.4941030  33.0857782  66.6785364  36.5545153  33.5855165  65.7205863
  35.3837788  20.2791216  75.5598075  34.4660349  20.5006163  75.4019763
  35.7997931  20.3537527  74.7009783  36.1672835  21.6782632  70.6900756
  36.9144654  22.1904029  70.3807878  36.4364425  21.3566685  71.5505149
  34.4399485  24.1741173  67.6727710  33.5310705  23.8900206  67.7700180
  34.4694569  24.5940251  66.8131017  39.6718753  27.7847762  71.4418877
  39.2181080  26.9438672  71.4984068  39.0412720  28.4209161  71.7793658
  38.6151672  18.7139748  72.6719545  37.8774429  18.2017135  73.0029787
  38.8678446  18.2740130  71.8602822  38.1151692  29.6224259  72.3768696
  38.4074666  30.1829316  71.6581061  38.6250313  29.9152820  73.1321855
  38.7163300  11.4916000  73.2661314  39.0222177  10.6313364  72.9787229
  39.4415905  12.0833621  73.0660308  25.0087656  21.8946687  71.6542912
  24.8112056  21.3016048  70.9293979  24.4534320  21.5898897  72.3718851
  32.9884379  21.7869793  73.7737505  33.0432989  20.8343630  73.6979982
  32.1775582  21.9429232  74.2578804  34.1375573  25.7149916  65.0115788
  33.6995003  24.9985775  64.5521426  34.8786014  25.9426031  64.4500880
  30.9276739  20.4046853  71.5327884  30.1144605  20.7041024  71.9393076
  31.4235734  20.0102542  72.2502366  33.0785317  30.4004610  73.4662149
  33.0361496  30.6265456  72.5370681  33.9948016  30.1667985  73.6147950
  36.5250951  20.8688678  80.3642778  36.8800339  21.0960151  81.2237244
  37.1723082  21.2007054  79.7420033  42.2548688  23.9907113  71.0692107
  42.1166587  24.1808709  70.1413296  41.8984907  24.7526496  71.5260158
  30.4190814  17.9765209  77.1489119  31.0590193  17.8353968  76.4512082
  29.5868345  17.6899722  76.7727721  42.2818068  26.0583640  76.0803378
  42.7154574  25.9658930  76.9286433  42.9949648  26.0341141  75.4423394
  31.1951118  27.2767639  73.2624111  31.9891717  26.7817959  73.0606686
  30.4842810  26.7485502  72.8991817  36.0145963  29.6585735  77.6136479
  36.0682985  30.2276671  78.3814195  35.1460744  29.8287620  77.2490516
  27.5033882  21.4210721  69.3383864  26.5731470  21.3595176  69.5553826
  27.5991354  20.8986674  68.5420505  27.4219431  17.9465534  71.9262106
  27.6826248  18.8610867  71.8171266  28.2436603  17.4789976  72.0758719
  28.8944356  19.3603291  79.0960930  29.5667409  19.1520653  78.4473579
  28.0674142  19.1625377  78.6566163  43.1433617  26.1007341  78.6136264
  43.3369507  27.0053152  78.8595539  43.0434235  25.6414760  79.4474849
  34.7969928  15.9865232  81.1126591  34.1497843  16.6855181  81.0191068
  35.5670943  16.4201376  81.4802839  38.2048726  26.2514084  84.1877144
  38.0534232  26.0224636  83.2707228  38.1953405  27.2084685  84.2008489
  34.9734062  23.8245997  79.1723411  35.9026122  23.9757156  78.9992378
  34.5525092  23.9130017  78.3172057  33.7722394  27.8496661  76.9421949
  33.6333480  27.4815445  77.8147887  32.9836990  28.3644300  76.7705906
  34.3670546  32.9505758  68.2847485  34.5422302  32.4793801  69.0993108
  33.6803334  33.5771524  68.5128746  35.3227609  27.2278264  74.3310786
  34.9877442  27.1879034  75.2268436  34.8231555  26.5622980  73.8581197
  29.2971853  22.6345894  79.8563367  29.1591651  21.9026133  80.4574907
  30.2076777  22.5454794  79.5747555  38.2586801  24.5734298  64.6047846
  37.6415971  23.8481126  64.5080899  37.7903289  25.3343658  64.2614920
  31.9254154  22.3465853  79.3447047  32.6353772  21.7059045  79.3033666
  31.8823462  22.5978748  80.2673228  39.9140933  29.2833206  82.2653626
  39.8553479  28.5992427  81.5984209  40.3160451  30.0252196  81.8134252
  30.6383088  19.3331071  81.1642687  30.1020445  18.8821809  81.8164283
  30.0499796  19.4676980  80.4213151  28.9331631  36.0995120  75.0587345
  29.1728230  36.7313644  75.7366364  28.0900828  35.7483160  75.3452705
  30.0485347  18.7919722  63.7269150  29.1714813  18.6708523  63.3631397
  30.5243100  18.0005801  63.4748039  39.9158340  27.2472790  80.4967606
  39.0285119  26.9098712  80.6194005  40.4856891  26.5155822  80.7336371
  21.5687487  23.5796882  73.8210657  22.2558527  23.2658612  73.2331673
  21.4135616  24.4838247  73.5477909  26.3722209  18.4687079  78.2495681
  26.2880398  17.8612748  77.5146091  25.5504915  18.9596097  78.2505177
  33.4459493  31.9074243  77.4628849  33.3729665  32.7129214  77.9748154
  33.0036886  32.1066209  76.6376871  33.2349273  31.1446013  70.9731671
  32.4516795  31.6867693  71.0669895  33.9342018  31.6619992  71.3725912
  36.5445923  16.9540642  73.6165876  37.0414622  16.2010605  73.2966946
  35.7732904  16.9904959  73.0509085  44.3975680  22.6581008  75.2584168
  44.3865557  23.5405723  74.8878101  43.5293060  22.3052559  75.0638705
  35.9058177  31.8061077  79.6187008  36.6186149  32.4408542  79.5462909
  35.4148205  31.9024943  78.8027010  37.6275704  25.7112329  71.1904300
  36.6931982  25.8313792  71.0209004  37.8052372  24.8084796  70.9264309
  33.1280892  19.0958025  73.3437561  32.7578679  18.5429066  74.0318466
  33.6239984  18.4916159  72.7912561  41.0148255  21.5529649  71.7254334
  41.4808707  22.3857640  71.6514636  41.4655755  21.0874630  72.4299592
  30.9570090  29.5555520  80.4392579  31.6579550  30.1892003  80.5921973
  30.4865205  29.8970252  79.6788218  39.0824486  27.8973470  68.7240486
  39.3584330  27.7830065  69.6334360  38.2128985  27.4990955  68.6852659
  38.9864918  13.9210236  75.7645235  38.0727998  14.1514463  75.9327442
  39.4158019  14.0048680  76.6159267  38.7571376  22.1100128  78.2645129
  38.1042826  22.3576035  77.6097582  39.1351756  21.2964266  77.9307606
  35.7178550  32.1459821  72.3673299  35.9000945  31.3281477  72.8301052
  36.5411536  32.3627513  71.9298189  36.0520716  31.0728006  69.6288348
  36.5808482  30.5620461  69.0158510  36.3148935  30.7570536  70.4933881
  34.8058949  22.8519939  84.7511166  34.1299586  22.7514068  85.4213541
  35.6286583  22.6959152  85.2147163  26.5537808  29.0891875  77.3723681
  27.1391245  28.3435563  77.5051586  26.3562647  29.3995832  78.2560345
  29.4076464  32.1243123  72.3886124  28.7386839  32.6089250  71.9050164
  29.2689333  32.3712343  73.3029502  21.1455463  21.6597475  76.0928125
  21.1839563  21.1261066  76.8865243  20.6395756  21.1332681  75.4739102
  33.5481732  34.1586866  78.9868782  34.1000040  34.3218488  79.7517867
  33.8887926  34.7491304  78.3148807  28.5246225  16.5062016  79.5890667
  28.5887552  17.3676847  79.1768065  28.4613346  15.8936018  78.8563025
  27.9998498  18.5785149  83.2363701  28.6270537  18.1962226  83.8501225
  27.1426417  18.3599350  83.6019394  38.3992606  28.9848124  84.8417437
  38.9432510  29.5978082  84.3472391  37.8179451  29.5427702  85.3584450
  24.7764041  20.3861578  69.1682056  25.0717482  19.4772256  69.1149110
  23.8752076  20.3649317  68.8463058  36.6850119  32.1068842  75.9732464
  36.5601259  31.3058582  75.4643410  37.3429210  32.6015035  75.4846434
  28.3058288  18.4617574  75.1509605  27.5844873  19.0753542  75.0117078
  29.0951543  18.9975339  75.0726250  38.7485028  29.9077862  77.6012014
  37.8015363  29.7883213  77.5290341  39.0967801  29.0200360  77.6838276
  31.1084601  15.7972001  81.4250256  31.6319003  16.0434297  82.1876566
  30.8896934  16.6292036  81.0053394  26.5051882  18.0675675  69.2921381
  26.1764588  17.1873054  69.1096487  26.8591253  18.0123344  70.1797770
  35.7531461  29.7030578  73.8016367  35.6056423  28.7747285  73.9823937
  36.5784955  29.7250669  73.3173442  29.6193705  18.3548645  69.6596859
  29.9589778  18.8834566  68.9375467  30.0665826  18.6929051  70.4355425
  39.3565583  30.5259137  74.8881239  40.2812130  30.3201998  74.7505691
  39.1880886  30.2775538  75.7970581  32.3137146  16.7385696  79.1099927
  31.9733967  15.9393509  79.5120607  31.6076152  17.0387407  78.5376760
  32.9653618  13.8235008  77.5627250  33.7879687  13.3495486  77.4406140
  33.2091682  14.6025492  78.0625936  31.6061852  16.8523267  67.8590152
  32.3270215  17.2304519  67.3553868  30.9827157  17.5712143  67.9625129
  35.7492975  17.5568416  68.7948484  35.9656590  18.4393054  68.4937312
  35.2687043  17.1654629  68.0654126  30.4892197  20.5154129  75.3719228
  30.3436777  20.8294432  76.2643510  30.0117400  21.1339029  74.8190127
  32.3488580  17.5056677  75.4200118  32.3350148  16.6097770  75.0832416
  33.0661008  17.5127341  76.0538404  34.2014710  17.9394017  77.4653245
  33.9432488  18.8611088  77.4637576  33.6699751  17.5424452  78.1553710
  39.1460899  31.0444804  70.2443331  39.3197777  30.4791227  69.4917183
  39.6389790  31.8445699  70.0622821  24.9637859  23.0559473  78.3106890
  24.4191327  23.8319281  78.4427164  25.8417209  23.4030278  78.1526011
  31.7525476  16.3871057  70.6887688  31.8741387  15.4587703  70.8878576
  31.4627518  16.4009743  69.7766004  34.6216666  14.0725968  73.8254408
  34.6438363  14.1365301  72.8706388  35.0384725  13.2330476  74.0194914
  45.0000290  23.8081227  71.8633631  45.4431436  23.0588552  71.4652754
  44.1226801  23.7991363  71.4807363  40.1336072  30.3611569  67.3440229
  40.8286976  30.9818261  67.5627544  40.4759222  29.5106920  67.6192607
  25.7503881  22.1829370  81.2037046  25.0085617  22.3312005  81.7901677
  25.4296625  22.4437635  80.3403796  42.0327495  27.8111274  68.8727560
  42.5578819  28.1498547  68.1476880  41.9449847  26.8758289  68.6890694
  33.6947543  31.7245348  81.0017436  34.0034670  31.4794495  81.8740136
  34.4923025  31.9291986  80.5136307  33.7168155  33.8783257  73.2322813
  33.2773146  33.3859636  73.9255670  34.4676272  33.3356225  72.9914888
  26.1960494  30.0694798  73.2347441  27.0218514  29.7698570  72.8546085
  25.8454546  29.3002421  73.6837230  31.1642028  29.4221266  75.3045115
  30.5422037  28.7591972  75.0047343  31.8346895  29.4482398  74.6218762
  24.3969100  27.9881125  74.1936375  23.5601008  27.5603299  74.0120376
  24.3692745  28.1813568  75.1307166  31.2366555  17.9003055  84.8977621
  31.2854711  18.7765177  84.5155390  31.7789069  17.3580448  84.3249264
  41.7221401  28.4444178  84.1778758  40.9316945  28.4268317  83.6383257
  41.4854755  28.9832471  84.9327794  41.8419276  25.2936644  81.4911486
  41.8917281  25.1286652  82.4327009  41.7333199  24.4263903  81.1009367
  30.7255535  27.9725190  68.7803575  30.8743655  28.6560654  68.1270248
  31.5321978  27.9530280  69.2953031  39.1323038  21.2767572  82.8070793
  40.0332901  21.1374037  82.5154791  39.2071013  21.4422027  83.7468971
  33.4665844  18.6534427  81.6523979  32.5969153  18.9467993  81.3806568
  33.7025324  19.2374872  82.3731243  43.3437473  27.7133586  81.7353508
  43.0522281  28.0763566  82.5716969  42.7309604  27.0000594  81.5566840
  44.5433155  25.2786465  74.2556078  45.3780046  25.7176270  74.4193638
  44.6792284  24.8025119  73.4364324  41.5924661  22.8366200  80.2033566
  42.0678783  23.0293847  79.3952417  40.6690226  22.8925386  79.9576950
  28.4808168  23.9990367  69.7864644  28.2354209  23.0952697  69.9844854
  28.6504082  24.0007518  68.8444122  36.1704877  14.8714044  79.1689400
  36.6886821  15.6075071  78.8435888  35.8160010  15.1778037  80.0036159
  27.7503815  19.7318725  67.2850806  27.0573060  19.8063080  66.6290842
  27.5055567  18.9679069  67.8072323  36.4217472  11.2914326  74.6890296
  36.7019225  10.6237515  75.3150723  37.2068078  11.4843422  74.1764960
  34.2250940  30.4673320  66.2515323  33.6524907  31.0863507  65.7985795
  34.7983734  31.0172682  66.7855245  40.2926330  19.7131960  78.4361871
  41.2443753  19.8130058  78.4574096  40.1229780  18.9210229  78.9459956
  38.3140709  16.7987544  78.6221272  37.7190641  17.0792556  77.9267761
  38.0290406  17.2881445  79.3938014  37.4448200  30.7510470  67.3823905
  38.3778873  30.6856032  67.5856780  37.3571413  31.5866737  66.9238438
  40.0736217  30.0676341  64.3427853  39.9949848  29.7336204  65.2363610
  40.8945883  30.5598109  64.3419325  42.7714408  22.9338080  77.5504171
  42.7390728  21.9954081  77.7363855  43.3815031  23.0122117  76.8169996
  34.6097739  21.8034133  63.5931375  35.5556843  21.6740341  63.6619793
  34.2311984  21.0648795  64.0700803  42.9208896  19.7249123  77.5962454
  42.4047945  18.9407580  77.4092383  43.8048845  19.3967840  77.7608974
  40.5819623  13.4690139  73.5558267  40.3844444  13.1605227  74.4401599
  41.1919329  14.1951778  73.6856197  48.5890958  23.9954087  76.6910208
  49.3194346  23.7339375  77.2517911  47.9797903  23.2582809  76.7312276
  46.6706255  22.1361949  77.2884659  45.9439418  22.0017914  76.6801151
  46.2553542  22.4438778  78.0941377  34.4936431  25.8551879  85.0532032
  35.4139441  26.0330478  85.2472079  34.4586014  24.9107925  84.9011731
  32.7940656  19.7284109  63.5286260  31.8872111  19.4317222  63.6048974
  33.0716637  19.4313928  62.6620547  23.7118596  21.0490473  73.9785307
  23.3921380  20.1955781  73.6859681  23.1652024  21.2639051  74.7343274
  27.4898504  23.7652914  77.6954813  27.7084513  24.6970022  77.7142847
  27.9024277  23.4060888  78.4809617  34.4102721  14.2720999  69.6830502
  33.6003450  13.9268084  70.0585748  35.0987138  13.9628543  70.2718113
  36.3393270  13.3499046  71.3054798  36.8924308  13.7694499  71.9644821
  36.5763356  12.4234794  71.3477754  32.3626369  19.3386120  87.0857562
  32.2623096  20.2880477  87.0169653  32.1447911  19.0104358  86.2133632
  31.5639440  16.5871045  63.6698240  32.4258604  16.9125943  63.9294057
  31.7489784  15.8002541  63.1571305  23.5806856  24.6693384  75.9478428
  22.8870328  24.2547337  75.4348383  24.3279847  24.7113921  75.3511847
  39.7172077  15.4599571  70.8133463  39.1370746  16.1184375  70.4311515
  39.4508009  14.6376916  70.4020880  38.1675643  14.8604629  73.0154783
  38.6675422  14.9721163  72.2069102  38.8111251  14.5565682  73.6555591
  32.2257639  22.7683258  85.9022624  31.7424721  23.5683619  86.1086513
  32.3118578  22.7791203  84.9490068  25.4943599  24.6011638  73.8244443
  25.4714287  24.6999325  72.8726326  25.8044235  25.4476789  74.1461609
  28.1530977  26.6587793  77.9391058  29.1074230  26.6271735  77.8720989
  27.9543500  26.1978417  78.7541284  28.7430359  25.2288909  80.5061855
  29.5623248  25.7232988  80.5296693  29.0167166  24.3120877  80.4779423
  38.4996955  17.6199661  69.8689811  37.6122810  17.9049312  69.6510006
  38.9150944  17.4593425  69.0217088  41.8511491  17.6446182  73.5844150
  42.6271881  18.1342635  73.8568767  41.1259625  18.0704237  74.0416020
  44.2884050  18.3573802  74.6418091  44.8828540  18.1169538  73.9311399
  44.3610633  17.6380932  75.2691627  26.5081205  32.2007413  74.9561256
  26.3735673  31.4407814  74.3899254  26.0913268  32.9248312  74.4890044
  37.6440168  27.3844336  63.9637831  38.3476018  27.5894339  64.5795486
  36.9202817  27.9521098  64.2286914  38.4737979  23.1354197  70.0840101
  38.4173180  23.5922749  69.2447733  39.0266321  22.3744882  69.9062944
  42.2842784  18.9243929  70.9090221  42.0279719  18.5240565  71.7398428
  41.6595653  19.6387723  70.7840360  46.5955122  21.6640003  73.4161512
  46.0354680  21.7333192  74.1893074  45.9898626  21.4880987  72.6961008
  29.6650331  33.0976730  75.1679698  29.5482715  34.0422162  75.0658388
  28.8442777  32.7950291  75.5565497  39.5526866  27.8226865  66.0136291
  40.3872470  27.3908064  65.8313766  39.3911209  27.6508879  66.9413185
  39.2072758  24.3258979  67.3792630  39.1521562  24.1603250  66.4381074
  38.5818813  25.0335012  67.5354820  23.9965273  19.5627043  81.2054052
  24.6424136  19.0525997  81.6941278  23.7882424  20.2995725  81.7797478
  36.5218665  26.6307891  86.7046193  37.3909825  26.8048543  86.3432828
  36.0425417  27.4502307  86.5821922  32.5168883  13.8267088  66.9577949
  32.5047553  14.7708928  67.1146219  33.4092305  13.6437233  66.6637410
  30.6904845  33.7504992  78.3835627  31.5932092  33.7828602  78.7002122
  30.4642215  32.8205442  78.3981962  32.4458447  32.5035978  75.0445705
  31.4954078  32.5037840  74.9310078  32.7490933  31.7568713  74.5281740
  36.3321003  10.4209864  71.2123885  35.5653399   9.8668351  71.3580568
  36.7431708  10.4931733  72.0738037  28.3362764  16.7094660  85.3029067
  29.1994225  16.3531465  85.5132391  27.7628175  16.3708555  85.9904471
  48.1811141  38.3396516  76.1091468  48.8189551  38.2203264  75.4054808
  48.0631984  39.2877360  76.1679420  44.9900847  38.2923945  76.0452992
  44.6519359  38.1765009  75.1573527  45.8590615  37.8915110  76.0253998
  45.4720630  39.4458796  82.0039198  45.4609271  39.0511595  81.1319702
  45.6341270  38.7124869  82.5972969  42.1927891  42.2295908  80.9518382
  41.9017757  43.1341539  80.8365048  42.8284876  42.2712436  81.6662451
  43.1184098  39.6072757  77.5419741  43.7147670  39.3828779  76.8276704
  43.1759070  38.8657502  78.1445189  42.6909126  37.0612192  65.3769932
  42.9434647  36.5393713  64.6153395  41.7533686  36.8978337  65.4796616
  47.7352409  36.0647970  73.1844676  48.5215499  35.6467393  72.8335093
  47.9991114  36.9694063  73.3526324  53.1360836  36.0023204  74.0877654
  53.8686008  35.4322420  74.3215484  52.3800192  35.6144804  74.5284160
  50.6586257  29.7144778  78.5472263  50.3269582  30.5840189  78.3233478
  50.0631870  29.3981062  79.2266293  44.3942443  33.4540345  66.2802345
  44.5616845  34.3220581  66.6472816  44.2039612  33.6167626  65.3563634
  47.1517776  41.9157324  77.9468176  46.8518499  42.8182362  77.8383983
  46.8068836  41.6489507  78.7989328  40.6030258  38.3671120  73.9804880
  39.6780754  38.2347335  74.1882572  40.8514671  39.1465340  74.4774822
  50.5514920  34.4339864  75.6265613  49.6431797  34.3655272  75.3324374
  50.5002516  34.9111809  76.4547438  44.3731664  35.9098002  67.2649012
  44.2531289  36.3555053  68.1034492  43.6784252  36.2583320  66.7062550
  37.9639069  38.0104394  74.8148669  38.0931450  38.2638873  75.7288081
  37.2836520  38.6032102  74.4953324  44.6255786  35.8529509  83.5700510
  43.8489120  36.4123430  83.5603375  45.2646349  36.3386292  84.0915380
  52.4176566  32.6356302  77.4043487  51.7750947  32.9288835  76.7583281
  51.9131495  32.5209223  78.2096683  50.0716730  36.3819475  68.0929346
  50.9834586  36.6146862  67.9177044  49.5626377  36.9656520  67.5304425
  42.8802158  38.6614963  83.1318477  43.6216843  39.2000007  82.8553301
  42.1739144  39.2881252  83.2890029  48.3557498  40.8044103  81.7290639
  48.7640854  40.3626514  80.9845271  47.6334759  40.2296731  81.9824832
  44.7088568  35.7416710  79.1024196  45.5549763  36.1656124  79.2458845
  44.6487206  35.0850334  79.7962759  47.8588013  33.4021078  80.7605369
  47.6148945  34.1563139  80.2239645  48.1347944  33.7806426  81.5952616
  49.8126476  39.9459691  79.4382635  50.0243371  40.5891451  78.7617016
  49.7656224  39.1122007  78.9704565  47.4152705  32.5577511  76.3419207
  46.5537184  32.8558765  76.6335945  47.4415140  32.7747910  75.4100240
  41.1238355  40.6491183  75.6872776  41.6939712  41.0778452  75.0490260
  41.7146467  40.3673768  76.3856962  43.1683160  37.2242854  69.5582578
  43.8707204  37.6763898  70.0256504  42.8363789  36.5826673  70.1862471
  41.6163522  35.8154611  83.9333787  40.9862182  36.4970892  84.1669184
  41.5099610  35.7037693  82.9886925  36.9108494  35.4826407  74.8599711
  36.1207548  35.7383935  74.3839822  37.4019742  36.2974745  74.9651752
  50.9272304  42.8231646  77.6104992  51.7489748  42.4211833  77.3287674
  50.9234707  42.7199880  78.5621108  38.8623240  35.8470986  71.8183188
  38.0654403  35.9589680  72.3366684  38.6348832  36.1857638  70.9524079
  44.6928907  42.3715689  79.7665703  44.7573340  42.8336097  80.6023874
  43.9839831  41.7413054  79.8948012  35.1946197  35.7356897  77.2914702
  35.4454236  36.6203907  77.5572278  35.7305746  35.5561499  76.5189794
  59.0178297  39.1670395  73.9589964  58.2642005  38.5977793  73.8033968
  59.1525838  39.1333059  74.9060598  40.8944265  30.1175377  86.2959038
  40.5011210  29.5641575  86.9706682  41.7110405  30.4285955  86.6865556
  43.8112226  31.5333256  83.8879295  44.5521939  32.1340409  83.8083757
  44.0430148  30.7910894  83.3297337  38.9553564  36.7189623  82.1657524
  38.8407079  35.8174880  82.4664623  38.0998081  36.9653320  81.8142341
  46.0345401  44.6607363  83.7645025  45.5909256  43.8743742  83.4465930
  46.6962615  44.8486514  83.0988916  48.1326639  44.9410163  81.7926426
  48.1145115  45.7619044  81.3006695  49.0546560  44.8164239  82.0176567
  44.5899694  42.4554293  82.6349935  45.1228030  41.6942581  82.4049243
  44.0613775  42.1627945  83.3774089  47.7569389  27.5614359  78.1643576
  47.4133658  28.4516000  78.0882687  48.1248351  27.3716016  77.3013161
  47.7219671  37.5522970  66.6716012  47.2066295  38.3227575  66.9104399
  47.4496980  36.8788106  67.2949073  45.3066782  32.3972671  71.7301250
  44.4508379  32.0079521  71.5506889  45.7193734  32.4764631  70.8701035
  46.8365929  29.9319014  76.1292810  46.3330725  29.8949149  75.3160615
  47.1296536  30.8411757  76.1889466  43.0808815  30.0157744  75.1358991
  43.9461812  29.8200552  74.7764881  43.1486324  29.7868095  76.0628348
  47.5105974  35.4250062  68.4975793  47.2056110  35.7396211  69.3485936
  48.4636417  35.5031482  68.5403126  50.9345252  39.7789306  75.2635793
  50.2768927  40.4688567  75.3515922  51.7385652  40.1685738  75.6069779
  40.6871134  32.2459952  72.5075358  41.2614886  32.0235133  71.7748551
  41.2742116  32.3148646  73.2603960  49.7450711  38.1333678  73.3139735
  50.2582593  38.7663670  73.8161444  50.3951935  37.5334874  72.9483095
  41.0140721  34.2764413  66.5271243  40.1778033  34.6139099  66.8480518
  40.8745491  34.1413392  65.5898380  42.9893802  29.1201201  71.2350428
  42.3358214  28.8050218  70.6107042  42.9474276  28.4976941  71.9610251
  44.1005006  39.4020496  63.1503720  43.1932068  39.1709749  63.3494869
  44.5976038  38.6058115  63.3377701  46.2231542  35.6083134  75.5598075
  45.3054103  35.8298081  75.4019763  46.6391686  35.6829445  74.7009783
  47.0066590  37.0074550  70.6900756  47.7538409  37.5195947  70.3807878
  47.2758179  36.6858602  71.5505149  49.4545427  34.0431666  72.6719545
  48.7168184  33.5309052  73.0029787  49.7072200  33.6032048  71.8602822
  49.5557054  26.8207918  73.2661314  49.8615931  25.9605281  72.9787229
  50.2809659  27.4125538  73.0660308  35.8481410  37.2238605  71.6542912
  35.6505810  36.6307965  70.9293979  35.2928074  36.9190815  72.3718851
  43.8278134  37.1161711  73.7737505  43.8826744  36.1635547  73.6979982
  43.0169336  37.2721150  74.2578804  41.7670494  35.7338771  71.5327884
  40.9538359  36.0332941  71.9393076  42.2629488  35.3394460  72.2502366
  47.3644706  36.1980595  80.3642778  47.7194093  36.4252068  81.2237244
  48.0116837  36.5298972  79.7420033  53.0942443  39.3199031  71.0692107
  52.9560341  39.5100627  70.1413296  52.7378661  40.0818414  71.5260158
  41.2584569  33.3057126  77.1489119  41.8983948  33.1645885  76.4512082
  40.4262099  33.0191640  76.7727721  53.1211822  41.3875558  76.0803378
  53.5548329  41.2950847  76.9286433  53.8343403  41.3633059  75.4423394
  46.8539717  44.9877652  77.6136479  46.9076739  45.5568589  78.3814195
  45.9854498  45.1579537  77.2490516  38.3427636  36.7502638  69.3383864
  37.4125224  36.6887094  69.5553826  38.4385108  36.2278591  68.5420505
  38.2613185  33.2757451  71.9262106  38.5220002  34.1902785  71.8171266
  39.0830357  32.8081894  72.0758719  39.7338110  34.6895208  79.0960930
  40.4061164  34.4812571  78.4473579  38.9067897  34.4917294  78.6566163
  53.9827372  41.4299259  78.6136264  54.1763262  42.3345069  78.8595539
  53.8827990  40.9706678  79.4474849  45.6363682  31.3157149  81.1126591
  44.9891597  32.0147099  81.0191068  46.4064698  31.7493293  81.4802839
  49.0442480  41.5806002  84.1877144  48.8927987  41.3516553  83.2707228
  49.0347160  42.5376603  84.2008489  45.8127817  39.1537914  79.1723411
  46.7419877  39.3049074  78.9992378  45.3918847  39.2421935  78.3172057
  44.6116149  43.1788579  76.9421949  44.4727234  42.8107363  77.8147887
  43.8230745  43.6936218  76.7705906  40.1365608  37.9637811  79.8563367
  39.9985406  37.2318050  80.4574907  41.0470531  37.8746712  79.5747555
  42.7647908  37.6757771  79.3447047  43.4747527  37.0350963  79.3033666
  42.7217216  37.9270666  80.2673228  50.7534687  44.6125124  82.2653626
  50.6947233  43.9284344  81.5984209  51.1554205  45.3544114  81.8134252
  41.4776842  34.6622989  81.1642687  40.9414199  34.2113727  81.8164283
  40.8893551  34.7968897  80.4213151  40.8879101  34.1211640  63.7269150
  40.0108568  34.0000441  63.3631397  41.3636854  33.3297718  63.4748039
  50.7552094  42.5764708  80.4967606  49.8678873  42.2390630  80.6194005
  51.3250645  41.8447739  80.7336371  32.4081241  38.9088800  73.8210657
  33.0952281  38.5950530  73.2331673  32.2529370  39.8130164  73.5477909
  37.2115964  33.7978996  78.2495681  37.1274152  33.1904666  77.5146091
  36.3898670  34.2888015  78.2505177  47.3839677  32.2832560  73.6165876
  47.8808377  31.5302522  73.2966946  46.6126659  32.3196877  73.0509085
  55.2369435  37.9872925  75.2584168  55.2259311  38.8697641  74.8878101
  54.3686814  37.6344476  75.0638705  46.7451931  47.1352994  79.6187008
  47.4579903  47.7700459  79.5462909  46.2541960  47.2316860  78.8027010
  43.9674646  34.4249943  73.3437561  43.5972434  33.8720983  74.0318466
  44.4633739  33.8208076  72.7912561  51.8542009  36.8821566  71.7254334
  52.3202462  37.7149558  71.6514636  52.3049510  36.4166548  72.4299592
  41.7963845  44.8847438  80.4392579  42.4973304  45.5183921  80.5921973
  41.3258960  45.2262169  79.6788218  49.8258672  29.2502153  75.7645235
  48.9121752  29.4806380  75.9327442  50.2551774  29.3340597  76.6159267
  49.5965131  37.4392045  78.2645129  48.9436581  37.6867953  77.6097582
  49.9745511  36.6256184  77.9307606  45.6452704  38.1811856  84.7511166
  44.9693341  38.0805986  85.4213541  46.4680338  38.0251070  85.2147163
  37.3931563  44.4183793  77.3723681  37.9785000  43.6727481  77.5051586
  37.1956401  44.7287750  78.2560345  31.9849218  36.9889393  76.0928125
  32.0233317  36.4552984  76.8865243  31.4789510  36.4624599  75.4739102
  39.3639980  31.8353934  79.5890667  39.4281306  32.6968765  79.1768065
  39.3007100  31.2227935  78.8563025  38.8392252  33.9077066  83.2363701
  39.4664291  33.5254144  83.8501225  37.9820171  33.6891268  83.6019394
  49.2386361  44.3140041  84.8417437  49.7826265  44.9270000  84.3472391
  48.6573206  44.8719620  85.3584450  35.6157795  35.7153495  69.1682056
  35.9111236  34.8064174  69.1149110  34.7145831  35.6941235  68.8463058
  39.1452042  33.7909492  75.1509605  38.4238628  34.4045460  75.0117078
  39.9345298  34.3267257  75.0726250  49.5878782  45.2369779  77.6012014
  48.6409118  45.1175131  77.5290341  49.9361555  44.3492278  77.6838276
  41.9478356  31.1263918  81.4250256  42.4712757  31.3726215  82.1876566
  41.7290689  31.9583953  81.0053394  37.3445637  33.3967593  69.2921381
  37.0158343  32.5164972  69.1096487  37.6985007  33.3415262  70.1797770
  40.4587460  33.6840563  69.6596859  40.7983532  34.2126484  68.9375467
  40.9059580  34.0220969  70.4355425  43.1530901  32.0677614  79.1099927
  42.8127721  31.2685427  79.5120607  42.4469907  32.3679324  78.5376760
  43.8047372  29.1526926  77.5627250  44.6273442  28.6787404  77.4406140
  44.0485436  29.9317410  78.0625936  42.4455607  32.1815184  67.8590152
  43.1663969  32.5596437  67.3553868  41.8220911  32.9004061  67.9625129
  46.5886730  32.8860333  68.7948484  46.8050344  33.7684971  68.4937312
  46.1080797  32.4946547  68.0654126  41.3285951  35.8446047  75.3719228
  41.1830532  36.1586350  76.2643510  40.8511155  36.4630947  74.8190127
  43.1882334  32.8348595  75.4200118  43.1743903  31.9389688  75.0832416
  43.9054762  32.8419258  76.0538404  45.0408465  33.2685935  77.4653245
  44.7826243  34.1903005  77.4637576  44.5093505  32.8716369  78.1553710
  35.8031613  38.3851391  78.3106890  35.2585081  39.1611199  78.4427164
  36.6810963  38.7322195  78.1526011  42.5919230  31.7162975  70.6887688
  42.7135141  30.7879621  70.8878576  42.3021272  31.7301661  69.7766004
  45.4610420  29.4017885  73.8254408  45.4832117  29.4657218  72.8706388
  45.8778479  28.5622394  74.0194914  55.8394045  39.1373145  71.8633631
  56.2825191  38.3880470  71.4652754  54.9620555  39.1283281  71.4807363
  36.5897635  37.5121287  81.2037046  35.8479371  37.6603923  81.7901677
  36.2690380  37.7729553  80.3403796  44.5341298  47.0537265  81.0017436
  44.8428424  46.8086412  81.8740136  45.3316780  47.2583904  80.5136307
  35.2362854  43.3173042  74.1936375  34.3994762  42.8895217  74.0120376
  35.2086499  43.5105486  75.1307166  42.0760310  33.2294972  84.8977621
  42.1248465  34.1057095  84.5155390  42.6182824  32.6872365  84.3249264
  52.5615155  43.7736095  84.1778758  51.7710699  43.7560234  83.6383257
  52.3248510  44.3124389  84.9327794  52.6813030  40.6228562  81.4911486
  52.7311035  40.4578569  82.4327009  52.5726954  39.7555821  81.1009367
  49.9716793  36.6059490  82.8070793  50.8726655  36.4665955  82.5154791
  50.0464767  36.7713945  83.7468971  44.3059598  33.9826345  81.6523979
  43.4362907  34.2759911  81.3806568  44.5419078  34.5666790  82.3731243
  52.4318415  38.1658118  80.2033566  52.9072537  38.3585764  79.3952417
  51.5083981  38.2217304  79.9576950  47.0098632  30.2005962  79.1689400
  47.5280576  30.9366988  78.8435888  46.6553765  30.5069955  80.0036159
  38.5897570  35.0610643  67.2850806  37.8966814  35.1354998  66.6290842
  38.3449321  34.2970986  67.8072323  47.2611226  26.6206244  74.6890296
  47.5412980  25.9529433  75.3150723  48.0461833  26.8135340  74.1764960
  51.1320084  35.0423878  78.4361871  52.0837507  35.1421976  78.4574096
  50.9623535  34.2502147  78.9459956  49.1534464  32.1279461  78.6221272
  48.5584396  32.4084474  77.9267761  48.8684161  32.6173362  79.3938014
  53.6108162  38.2629998  77.5504171  53.5784482  37.3245998  77.7363855
  54.2208786  38.3414034  76.8169996  45.4491493  37.1326051  63.5931375
  46.3950598  37.0032259  63.6619793  45.0705738  36.3940713  64.0700803
  53.7602651  35.0541041  77.5962454  53.2441699  34.2699498  77.4092383
  54.6442599  34.7259758  77.7608974  51.4213378  28.7982057  73.5558267
  51.2238199  28.4897145  74.4401599  52.0313083  29.5243696  73.6856197
  59.4284712  39.3246005  76.6910208  60.1588101  39.0631293  77.2517911
  58.8191658  38.5874727  76.7312276  57.5100009  37.4653867  77.2884659
  56.7833173  37.3309832  76.6801151  57.0947296  37.7730696  78.0941377
  45.3330186  41.1843797  85.0532032  46.2533195  41.3622396  85.2472079
  45.2979769  40.2399842  84.9011731  43.6334410  35.0576027  63.5286260
  42.7265866  34.7609140  63.6048974  43.9110391  34.7605845  62.6620547
  34.5512351  36.3782391  73.9785307  34.2315135  35.5247699  73.6859681
  34.0045779  36.5930969  74.7343274  38.3292258  39.0944832  77.6954813
  38.5478268  40.0261939  77.7142847  38.7418032  38.7352806  78.4809617
  45.2496476  29.6012917  69.6830502  44.4397204  29.2560002  70.0585748
  45.9380893  29.2920461  70.2718113  47.1787024  28.6790964  71.3054798
  47.7318063  29.0986417  71.9644821  47.4157111  27.7526712  71.3477754
  43.2020123  34.6678037  87.0857562  43.1016850  35.6172394  87.0169653
  42.9841665  34.3396276  86.2133632  42.4033195  31.9162962  63.6698240
  43.2652359  32.2417861  63.9294057  42.5883539  31.1294458  63.1571305
  34.4200611  39.9985302  75.9478428  33.7264082  39.5839255  75.4348383
  35.1673602  40.0405839  75.3511847  50.5565831  30.7891489  70.8133463
  49.9764500  31.4476293  70.4311515  50.2901764  29.9668833  70.4020880
  49.0069398  30.1896546  73.0154783  49.5069176  30.3013081  72.2069102
  49.6505006  29.8857599  73.6555591  43.0651394  38.0975176  85.9022624
  42.5818475  38.8975536  86.1086513  43.1512333  38.1083121  84.9490068
  36.3337353  39.9303556  73.8244443  36.3108041  40.0291243  72.8726326
  36.6437990  40.7768707  74.1461609  38.9924731  41.9879711  77.9391058
  39.9467985  41.9563653  77.8720989  38.7937255  41.5270335  78.7541284
  39.5824113  40.5580827  80.5061855  40.4017002  41.0524906  80.5296693
  39.8560921  39.6412795  80.4779423  49.3390709  32.9491579  69.8689811
  48.4516564  33.2341230  69.6510006  49.7544698  32.7885343  69.0217088
  52.6905245  32.9738100  73.5844150  53.4665636  33.4634553  73.8568767
  51.9653380  33.3996154  74.0416020  55.1277804  33.6865719  74.6418091
  55.7222295  33.4461455  73.9311399  55.2004388  32.9672850  75.2691627
  49.3131733  38.4646115  70.0840101  49.2566934  38.9214667  69.2447733
  49.8660076  37.7036800  69.9062944  53.1236539  34.2535847  70.9090221
  52.8673473  33.8532483  71.7398428  52.4989407  34.9679641  70.7840360
  57.4348877  36.9931920  73.4161512  56.8748435  37.0625110  74.1893074
  56.8292380  36.8172905  72.6961008  34.8359027  34.8918961  81.2054052
  35.4817891  34.3817915  81.6941278  34.6276178  35.6287642  81.7797478
  47.3612420  41.9599808  86.7046193  48.2303579  42.1340460  86.3432828
  46.8819171  42.7794225  86.5821922  43.3562638  29.1559005  66.9577949
  43.3441308  30.1000845  67.1146219  44.2486060  28.9729151  66.6637410
  47.1714757  25.7501782  71.2123885  46.4047153  25.1960269  71.3580568
  47.5825462  25.8223651  72.0738037  39.1756518  32.0386578  85.3029067
  40.0387980  31.6823383  85.5132391  38.6021929  31.7000473  85.9904471
  51.7338019  45.4467294  86.2959038  51.3404965  44.8933493  86.9706682
  52.5504159  45.7577873  86.6865556  55.4293448  57.7846211  82.6349935
  55.9621785  57.0234499  82.4049243  54.9007529  57.4919862  83.3774089
  58.5963143  42.8906276  78.1643576  58.2527412  43.7807918  78.0882687
  58.9642106  42.7007934  77.3013161  60.3950809  42.1499836  73.2661314
  60.7009686  41.2897199  72.9787229  61.1203414  42.7417456  73.0660308
  64.8221126  56.7591177  78.6136264  65.0157016  57.6636987  78.8595539
  64.7221744  56.2998596  79.4474849  59.8836235  56.9097919  84.1877144
  59.7321741  56.6808471  83.2707228  59.8740914  57.8668521  84.2008489
  61.5945849  57.9056626  80.4967606  60.7072628  57.5682548  80.6194005
  62.1644400  57.1739657  80.7336371  52.6357599  60.2139356  80.4392579
  53.3367059  60.8475839  80.5921973  52.1652714  60.5554087  79.6788218
  56.4846458  53.5103774  84.7511166  55.8087095  53.4097903  85.4213541
  57.3074092  53.3542988  85.2147163  49.6786007  49.2368984  83.2363701
  50.3058046  48.8546061  83.8501225  48.8213926  49.0183186  83.6019394
  52.9154064  48.5586890  84.8977621  52.9642220  49.4349013  84.5155390
  53.4576578  48.0164283  84.3249264  63.4008910  59.1028013  84.1778758
  62.6104453  59.0852152  83.6383257  63.1642264  59.6416307  84.9327794
  63.5206785  55.9520479  81.4911486  63.5704790  55.7870487  82.4327009
  63.4120708  55.0847739  81.1009367  65.0224982  58.3717421  81.7353508
  64.7309790  58.7347402  82.5716969  64.4097113  57.6584429  81.5566840
  70.2678467  54.6537922  76.6910208  70.9981855  54.3923210  77.2517911
  69.6585412  53.9166644  76.7312276  56.1723940  56.5135715  85.0532032
  57.0926950  56.6914314  85.2472079  56.1373523  55.5691760  84.9011731
  54.0413878  49.9969955  87.0857562  53.9410605  50.9464312  87.0169653
  53.8235420  49.6688194  86.2133632  53.9045148  53.4267094  85.9022624
  53.4212230  54.2267454  86.1086513  53.9906087  53.4375039  84.9490068
  58.2006174  57.2891726  86.7046193  59.0697334  57.4632378  86.3432828
  57.7212926  58.1086143  86.5821922  50.0150273  47.3678495  85.3029067
  50.8781734  47.0115300  85.5132391  49.4415684  47.0292390  85.9904471
  68.1074730  74.4714224  67.3464348  67.4562710  75.0568304  66.9598362
  68.9019093  75.0020419  67.4059386  63.8126065  79.3385479  70.9139143
  63.7350095  80.2893304  70.9927624  63.2087709  78.9931352  71.5714070
  74.2363053  72.9583567  72.8387291  73.5514091  73.3382468  72.2884325
  74.3206903  73.5678894  73.5719239  71.4913985  70.6043526  79.4382635
  71.7030880  71.2475286  78.7617016  71.4443733  69.7705843  78.9704565
  72.6059813  73.4815481  77.6104992  73.4277257  73.0795669  77.3287674
  72.6022216  73.3783716  78.5621108  80.6965806  69.8254230  73.9589964
  79.9429514  69.2561628  73.8033968  80.8313347  69.7916894  74.9060598
  66.0864434  74.6967632  69.6344683  65.9510109  75.5419168  70.0629531
  66.6274246  74.8986910  68.8710617  69.4356898  58.2198194  78.1643576
  69.0921167  59.1099836  78.0882687  69.8035860  58.0299852  77.3013161
  74.3741454  70.9639160  68.6069185  73.5970897  70.6250319  68.1624347
  75.0532935  70.9691783  67.9324150  68.6860594  78.7701838  66.0700406
  68.0122293  79.0733535  66.6785364  69.0726416  79.5730918  65.7205863
  72.1900016  73.7723515  71.4418877  71.7362343  72.9314425  71.4984068
  71.5593983  74.4084914  71.7793658  70.6332956  75.6100012  72.3768696
  70.9255930  76.1705069  71.6581061  71.1431576  75.9028573  73.1321855
  71.2344563  57.4791753  73.2661314  71.5403440  56.6189117  72.9787229
  71.9597168  58.0709374  73.0660308  69.0432215  66.8564431  80.3642778
  69.3981602  67.0835904  81.2237244  69.6904346  67.1882807  79.7420033
  74.7729951  69.9782867  71.0692107  74.6347850  70.1684462  70.1413296
  74.4166170  70.7402249  71.5260158  74.7999331  72.0459394  76.0803378
  75.2335838  71.9534683  76.9286433  75.5130912  72.0216894  75.4423394
  75.6614881  72.0883094  78.6136264  75.8550771  72.9928905  78.8595539
  75.5615499  71.6290513  79.4474849  66.8851810  78.9381511  68.2847485
  67.0603565  78.4669554  69.0993108  66.1984598  79.5647277  68.5128746
  65.7530536  77.1321766  70.9731671  64.9698058  77.6743446  71.0669895
  66.4523281  77.6495745  71.3725912  76.9156944  68.6456761  75.2584168
  76.9046820  69.5281476  74.8878101  76.0474323  68.2928312  75.0638705
  73.5329518  67.5405402  71.7254334  73.9989971  68.3733393  71.6514636
  73.9837019  67.0750383  72.4299592  71.6005750  73.8849223  68.7240486
  71.8765593  73.7705818  69.6334360  70.7310248  73.4866708  68.6852659
  71.2752640  68.0975881  78.2645129  70.6224090  68.3451788  77.6097582
  71.6533020  67.2840019  77.9307606  68.2359814  78.1335574  72.3673299
  68.4182208  77.3157230  72.8301052  69.0592800  78.3503266  71.9298189
  68.5701979  77.0603759  69.6288348  69.0989745  76.5496214  69.0158510
  68.8330199  76.7446289  70.4933881  61.9257727  78.1118876  72.3886124
  61.2568102  78.5965003  71.9050164  61.7870597  78.3588096  73.3029502
  71.8746846  76.5134890  74.8881239  72.7993394  76.3077751  74.7505691
  71.7062150  76.2651291  75.7970581  71.6642163  77.0320557  70.2443331
  71.8379040  76.4666980  69.4917183  72.1571054  77.8321452  70.0622821
  77.5181554  69.7956980  71.8633631  77.9612700  69.0464305  71.4652754
  76.6408064  69.7867117  71.4807363  72.6517335  76.3487322  67.3440229
  73.3468240  76.9694014  67.5627544  72.9940485  75.4982673  67.6192607
  74.5508758  73.7987027  68.8727560  75.0760082  74.1374300  68.1476880
  74.4631111  72.8634042  68.6890694  77.0614418  71.2662218  74.2556078
  77.8961310  71.7052023  74.4193638  77.1973547  70.7900872  73.4364324
  74.1105924  68.8241953  80.2033566  74.5860046  69.0169600  79.3952417
  73.1871490  68.8801139  79.9576950  68.6886141  60.8589797  79.1689400
  69.2068085  61.5950824  78.8435888  68.3341274  61.1653790  80.0036159
  66.7432204  76.4549073  66.2515323  66.1706171  77.0739260  65.7985795
  67.3164997  77.0048435  66.7855245  70.8321973  62.7863297  78.6221272
  70.2371905  63.0668309  77.9267761  70.5471670  63.2757198  79.3938014
  69.9629463  76.7386223  67.3823905  70.8960136  76.6731785  67.5856780
  69.8752676  77.5742490  66.9238438  72.5917480  76.0552094  64.3427853
  72.5131112  75.7211957  65.2363610  73.4127147  76.5473862  64.3419325
  75.2895671  68.9213833  77.5504171  75.2571991  67.9829834  77.7363855
  75.8996295  68.9997870  76.8169996  81.1072221  69.9829840  76.6910208
  81.8375609  69.7215128  77.2517911  80.4979166  69.2458562  76.7312276
  79.1887518  68.1237703  77.2884659  78.4620682  67.9893667  76.6801151
  78.7734805  68.4314531  78.0941377  79.1136386  67.6515756  73.4161512
  78.5535944  67.7208945  74.1893074  78.5079889  67.4756740  72.6961008
  72.0708129  73.8102618  66.0136291  72.9053733  73.3783817  65.8313766
  71.9092472  73.6384632  66.9413185  80.6992404  84.3272270  76.1091468
  81.3370814  84.2079017  75.4054808  80.5813247  85.2753113  76.1679420
  77.5082111  84.2799698  76.0452992  77.1700622  84.1640762  75.1573527
  78.3771879  83.8790863  76.0253998  73.3668926  86.1335174  72.0349883
  72.8033791  86.0425111  71.2666171  73.2521321  85.3135078  72.5152376
  77.9901894  85.4334549  82.0039198  77.9790534  85.0387348  81.1319702
  78.1522533  84.7000622  82.5972969  70.9133358  87.6286366  74.8734104
  71.7054650  87.2877190  74.4580403  71.1530008  87.7381341  75.7936257
  78.9468485  89.8006142  67.3464348  78.2956465  90.3860222  66.9598362
  79.7412848  90.3312337  67.4059386  72.8724112  86.8895279  67.7451483
  73.6454988  86.3424266  67.6064358  73.2249511  87.7539528  67.9565944
  74.7109155  88.2171661  80.9518382  74.4199021  89.1217292  80.8365048
  75.3466139  88.2588189  81.6662451  75.6365362  85.5948510  77.5419741
  76.2328934  85.3704532  76.8276704  75.6940333  84.8533255  78.1445189
  75.2090390  83.0487945  65.3769932  75.4615911  82.5269466  64.6153395
  74.2714949  82.8854090  65.4796616  80.2533673  82.0523723  73.1844676
  81.0396762  81.6343147  72.8335093  80.5172377  82.9569816  73.3526324
  80.4243750  87.4896574  67.8833333  79.7889583  87.5631200  68.5954237
  80.0941157  88.0790172  67.2052412  85.6542100  81.9898957  74.0877654
  86.3867272  81.4198173  74.3215484  84.8981456  81.6020557  74.5284160
  74.9286679  84.9516051  67.5794307  74.8122937  84.2760954  68.2475392
  75.0388939  84.4648425  66.7626460  77.2718220  84.4126198  71.2840997
  76.9076427  83.8856819  71.9953918  78.1285336  84.0224667  71.1107482
  83.1767520  75.7020531  78.5472263  82.8450845  76.5715942  78.3233478
  82.5813134  75.3856815  79.2266293  76.9123707  79.4416098  66.2802345
  77.0798109  80.3096334  66.6472816  76.7220876  79.6043379  65.3563634
  79.6699040  87.9033077  77.9468176  79.3699763  88.8058115  77.8383983
  79.3250099  87.6365260  78.7989328  73.1211521  84.3546873  73.9804880
  72.1962018  84.2223088  74.1882572  73.3695934  85.1341093  74.4774822
  83.0696184  80.4215617  75.6265613  82.1613061  80.3531025  75.3324374
  83.0183779  80.8987562  76.4547438  76.8912927  81.8973755  67.2649012
  76.7712553  82.3430806  68.1034492  76.1965516  82.2459073  66.7062550
  70.4820332  83.9980147  74.8148669  70.6112713  84.2514626  75.7288081
  69.8017784  84.5907855  74.4953324  74.6519820  94.6677397  70.9139143
  74.5743849  95.6185222  70.9927624  74.0481463  94.3223269  71.5714070
  77.1437049  81.8405262  83.5700510  76.3670383  82.3999183  83.5603375
  77.7827612  82.3262045  84.0915380  84.9357830  78.6232055  77.4043487
  84.2932210  78.9164588  76.7583281  84.4312758  78.5084976  78.2096683
  82.5897994  82.3695228  68.0929346  83.5015850  82.6022615  67.9177044
  82.0807641  82.9532273  67.5304425  75.3983422  84.6490716  83.1318477
  76.1398106  85.1875760  82.8553301  74.6920407  85.2757005  83.2890029
  80.8738761  86.7919856  81.7290639  81.2822117  86.3502267  80.9845271
  80.1516023  86.2172484  81.9824832  77.2269831  81.7292463  79.1024196
  78.0731027  82.1531877  79.2458845  77.1668469  81.0726087  79.7962759
  81.1967576  87.3521047  75.4842928  80.5676438  87.5166761  74.7818995
  80.8093238  87.7662656  76.2553892  85.0756808  88.2875485  72.8387291
  84.3907846  88.6674386  72.2884325  85.1600657  88.8970811  73.5719239
  80.3769277  79.3896831  80.7605369  80.1330209  80.1438892  80.2239645
  80.6529207  79.7682179  81.5952616  82.3307739  85.9335444  79.4382635
  82.5424635  86.5767204  78.7617016  82.2837488  85.0997760  78.9704565
  79.9333968  78.5453264  76.3419207  79.0718447  78.8434518  76.6335945
  79.9596403  78.7623663  75.4100240  76.7495538  87.0895455  72.7493013
  77.2133883  87.3683158  71.9597635  76.4852336  86.1878900  72.5666103
  73.6419619  86.6366937  75.6872776  74.2120976  87.0654205  75.0490260
  74.2327731  86.3549521  76.3856962  75.6864424  83.2118607  69.5582578
  76.3888467  83.6639651  70.0256504  75.3545052  82.5702426  70.1862471
  69.4289758  81.4702160  74.8599711  68.6388812  81.7259689  74.3839822
  69.9201005  82.2850498  74.9651752  83.4453567  88.8107399  77.6104992
  84.2671011  88.4087586  77.3287674  83.4415970  88.7075633  78.5621108
  71.3804503  81.8346739  71.8183188  70.5835666  81.9465433  72.3366684
  71.1530095  82.1733391  70.9524079  77.2110171  88.3591442  79.7665703
  77.2754603  88.8211850  80.6023874  76.5021095  87.7288807  79.8948012
  91.5359560  85.1546148  73.9589964  90.7823269  84.5853546  73.8033968
  91.6707102  85.1208812  74.9060598  76.9258188  90.0259550  69.6344683
  76.7903863  90.8711086  70.0629531  77.4668001  90.2278828  68.8710617
  70.3787586  87.5434988  70.2072608  70.8912106  88.3378238  70.3578173
  71.0310299  86.8461278  70.1406210  72.1882471  90.6600744  72.2895361
  72.3649099  91.5818709  72.1016345  72.9839304  90.3459163  72.7189741
  76.3293489  77.5209009  83.8879295  77.0703202  78.1216162  83.8083757
  76.5611412  76.7786647  83.3297337  78.5526665  90.6483116  83.7645025
  78.1090519  89.8619495  83.4465930  79.2143878  90.8362267  83.0988916
  73.3113786  92.1778918  78.2905704  73.8621211  92.0495981  77.5182697
  72.4725262  92.4773807  77.9400596  80.6507903  90.9285916  81.7926426
  80.6326378  91.7494797  81.3006695  81.5727823  90.8039992  82.0176567
  77.1080957  88.4430046  82.6349935  77.6409294  87.6818334  82.4049243
  76.5795038  88.1503698  83.3774089  80.2750652  73.5490112  78.1643576
  79.9314921  74.4391754  78.0882687  80.6429615  73.3591769  77.3013161
  68.3436503  85.8723642  70.9832179  69.1811725  86.2820651  70.7665886
  68.5214770  84.9323084  70.9532372  80.2400935  83.5398723  66.6716012
  79.7247558  84.3103328  66.9104399  79.9678243  82.8663859  67.2949073
  77.8248046  78.3848424  71.7301250  76.9689642  77.9955274  71.5506889
  78.2374998  78.4640385  70.8701035  79.3547192  75.9194767  76.1292810
  78.8511988  75.8824902  75.3160615  79.6477799  76.8287510  76.1889466
  75.5990078  76.0033497  75.1358991  76.4643075  75.8076305  74.7764881
  75.6667587  75.7743848  76.0628348  85.2135209  86.2931078  68.6069185
  84.4364652  85.9542237  68.1624347  85.8926690  86.2983701  67.9324150
  80.0287238  81.4125815  68.4975793  79.7237374  81.7271964  69.3485936
  80.9817680  81.4907235  68.5403126  78.4733670  87.5716038  70.1468747
  77.9455031  86.8368798  69.8341984  77.9721173  88.3490715  69.9008715
  83.4526516  85.7665059  75.2635793  82.7950190  86.4564320  75.3515922
  84.2566915  86.1561491  75.6069779  73.2052397  78.2335705  72.5075358
  73.7796149  78.0110886  71.7748551  73.7923380  78.3024399  73.2603960
  82.2631975  84.1209432  73.3139735  82.7763856  84.7539423  73.8161444
  82.9133198  83.5210627  72.9483095  73.5321985  80.2640166  66.5271243
  72.6959297  80.6014852  66.8480518  73.3926754  80.1289145  65.5898380
  75.5075065  75.1076954  71.2350428  74.8539477  74.7925971  70.6107042
  75.4655539  74.4852694  71.9610251  76.6186270  85.3896249  63.1503720
  75.7113332  85.1585502  63.3494869  77.1157302  84.5933868  63.3377701
  79.5254349  94.0993756  66.0700406  78.8516048  94.4025453  66.6785364
  79.9120171  94.9022836  65.7205863  78.7412805  81.5958887  75.5598075
  77.8235367  81.8173834  75.4019763  79.1572949  81.6705198  74.7009783
  79.5247853  82.9950303  70.6900756  80.2719672  83.5071700  70.3807878
  79.7939443  82.6734355  71.5505149  77.7974503  85.4908843  67.6727710
  76.8885723  85.2067876  67.7700180  77.8269587  85.9107922  66.8131017
  83.0293771  89.1015433  71.4418877  82.5756098  88.2606343  71.4984068
  82.3987738  89.7376831  71.7793658  81.9726690  80.0307419  72.6719545
  81.2349447  79.5184805  73.0029787  82.2253464  79.5907801  71.8602822
  81.4726710  90.9391930  72.3768696  81.7649684  91.4996987  71.6581061
  81.9825331  91.2320491  73.1321855  82.0738318  72.8083671  73.2661314
  82.3797195  71.9481034  72.9787229  82.7990923  73.4001291  73.0660308
  68.3662674  83.2114358  71.6542912  68.1687074  82.6183718  70.9293979
  67.8109338  82.9066568  72.3718851  76.3459397  83.1037464  73.7737505
  76.4008007  82.1511300  73.6979982  75.5350599  83.2596903  74.2578804
  77.4950591  87.0317587  65.0115788  77.0570021  86.3153446  64.5521426
  78.2361032  87.2593702  64.4500880  74.2851757  81.7214524  71.5327884
  73.4719623  82.0208694  71.9393076  74.7810752  81.3270213  72.2502366
  76.4360335  91.7172281  73.4662149  76.3936514  91.9433127  72.5370681
  77.3523034  91.4835655  73.6147950  79.8825969  82.1856348  80.3642778
  80.2375357  82.4127821  81.2237244  80.5298100  82.5174725  79.7420033
  85.6123706  85.3074784  71.0692107  85.4741605  85.4976380  70.1413296
  85.2559925  86.0694167  71.5260158  73.7765832  79.2932879  77.1489119
  74.4165211  79.1521638  76.4512082  72.9443363  79.0067393  76.7727721
  85.6393086  87.3751311  76.0803378  86.0729592  87.2826600  76.9286433
  86.3524666  87.3508812  75.4423394  74.5526136  88.5935310  73.2624111
  75.3466735  88.0985630  73.0606686  73.8417828  88.0653173  72.8991817
  79.3720981  90.9753405  77.6136479  79.4258003  91.5444342  78.3814195
  78.5035762  91.1455290  77.2490516  70.8608899  82.7378392  69.3383864
  69.9306488  82.6762847  69.5553826  70.9566371  82.2154344  68.5420505
  70.7794449  79.2633204  71.9262106  71.0401266  80.1778538  71.8171266
  71.6011621  78.7957647  72.0758719  86.5008635  87.4175012  78.6136264
  86.6944525  88.3220822  78.8595539  86.4009253  86.9582431  79.4474849
  78.1544946  77.3032902  81.1126591  77.5072861  78.0022852  81.0191068
  78.9245961  77.7369046  81.4802839  81.5623744  87.5681755  84.1877144
  81.4109250  87.3392306  83.2707228  81.5528423  88.5252356  84.2008489
  78.3309080  85.1413667  79.1723411  79.2601140  85.2924827  78.9992378
  77.9100110  85.2297688  78.3172057  77.1297412  89.1664332  76.9421949
  76.9908498  88.7983116  77.8147887  76.3412008  89.6811971  76.7705906
  77.7245564  94.2673428  68.2847485  77.8997320  93.7961471  69.0993108
  77.0378352  94.8939194  68.5128746  78.6802627  88.5445934  74.3310786
  78.3452460  88.5046704  75.2268436  78.1806573  87.8790650  73.8581197
  81.6161819  85.8901969  64.6047846  80.9990989  85.1648797  64.5080899
  81.1478307  86.6511329  64.2614920  75.2829172  83.6633524  79.3447047
  75.9928790  83.0226716  79.3033666  75.2398480  83.9146419  80.2673228
  83.2715950  90.6000877  82.2653626  83.2128497  89.9160097  81.5984209
  83.6735469  91.3419867  81.8134252  72.2906649  97.4162791  75.0587345
  72.5303248  98.0481315  75.7366364  71.4475846  97.0650831  75.3452705
  73.4060365  80.1087393  63.7269150  72.5289831  79.9876194  63.3631397
  73.8818118  79.3173471  63.4748039  83.2733358  88.5640461  80.4967606
  82.3860137  88.2266383  80.6194005  83.8431909  87.8323492  80.7336371
  64.9262505  84.8964553  73.8210657  65.6133545  84.5826283  73.2331673
  64.7710634  85.8005917  73.5477909  76.8034511  93.2241913  77.4628849
  76.7304683  94.0296885  77.9748154  76.3611904  93.4233879  76.6376871
  76.5924291  92.4613683  70.9731671  75.8091813  93.0035364  71.0669895
  77.2917036  92.9787663  71.3725912  79.9020941  78.2708313  73.6165876
  80.3989640  77.5178275  73.2966946  79.1307922  78.3072630  73.0509085
  87.7550698  83.9748678  75.2584168  87.7440575  84.8573394  74.8878101
  86.8868078  83.6220229  75.0638705  79.2633195  93.1228747  79.6187008
  79.9761167  93.7576212  79.5462909  78.7723223  93.2192613  78.8027010
  80.9850722  87.0280000  71.1904300  80.0507000  87.1481463  71.0209004
  81.1627390  86.1252467  70.9264309  76.4855910  80.4125696  73.3437561
  76.1153697  79.8596736  74.0318466  76.9815002  79.8083829  72.7912561
  84.3723273  82.8697319  71.7254334  84.8383725  83.7025311  71.6514636
  84.8230773  82.4042301  72.4299592  74.3145108  90.8723191  80.4392579
  75.0154568  91.5059674  80.5921973  73.8440223  91.2137922  79.6788218
  82.4399504  89.2141141  68.7240486  82.7159348  89.0997735  69.6334360
  81.5704003  88.8158626  68.6852659  82.3439936  75.2377906  75.7645235
  81.4303015  75.4682133  75.9327442  82.7733037  75.3216350  76.6159267
  82.1146394  83.4267798  78.2645129  81.4617844  83.6743706  77.6097582
  82.4926774  82.6131937  77.9307606  79.0753568  93.4627492  72.3673299
  79.2575963  92.6449147  72.8301052  79.8986554  93.6795184  71.9298189
  79.4095734  92.3895677  69.6288348  79.9383500  91.8788131  69.0158510
  79.6723953  92.0738207  70.4933881  78.1633967  84.1687609  84.7511166
  77.4874604  84.0681739  85.4213541  78.9861601  84.0126823  85.2147163
  69.9112826  90.4059546  77.3723681  70.4966263  89.6603234  77.5051586
  69.7137665  90.7163503  78.2560345  72.7651481  93.4410793  72.3886124
  72.0961857  93.9256921  71.9050164  72.6264351  93.6880014  73.3029502
  76.9056750  95.4754537  78.9868782  77.4575058  95.6386158  79.7517867
  77.2462944  96.0658975  78.3148807  81.7567624  90.3015794  84.8417437
  82.3007528  90.9145753  84.3472391  81.1754469  90.8595373  85.3584450
  68.1339059  81.7029248  69.1682056  68.4292500  80.7939927  69.1149110
  67.2327094  81.6816988  68.8463058  80.0425137  93.4236512  75.9732464
  79.9176277  92.6226252  75.4643410  80.7004228  93.9182706  75.4846434
  71.6633306  79.7785245  75.1509605  70.9419891  80.3921213  75.0117078
  72.4526561  80.3143010  75.0726250  82.1060046  91.2245533  77.6012014
  81.1590381  91.1050884  77.5290341  82.4542819  90.3368031  77.6838276
  74.4659619  77.1139671  81.4250256  74.9894021  77.3601968  82.1876566
  74.2471952  77.9459706  81.0053394  69.8626900  79.3843346  69.2921381
  69.5339606  78.5040725  69.1096487  70.2166271  79.3291015  70.1797770
  79.1106479  91.0198249  73.8016367  78.9631441  90.0914956  73.9823937
  79.9359973  91.0418339  73.3173442  72.9768723  79.6716316  69.6596859
  73.3164796  80.2002237  68.9375467  73.4240844  80.0096722  70.4355425
  82.7140601  91.8426807  74.8881239  83.6387148  91.6369669  74.7505691
  82.5455904  91.5943209  75.7970581  75.6712164  78.0553367  79.1099927
  75.3308984  77.2561180  79.5120607  74.9651170  78.3555077  78.5376760
  76.3228636  75.1402679  77.5627250  77.1454705  74.6663157  77.4406140
  76.5666699  75.9193163  78.0625936  74.9636870  78.1690937  67.8590152
  75.6845233  78.5472190  67.3553868  74.3402175  78.8879814  67.9625129
  79.1067993  78.8736086  68.7948484  79.3231608  79.7560724  68.4937312
  78.6262060  78.4822300  68.0654126  73.8467215  81.8321800  75.3719228
  73.7011795  82.1462103  76.2643510  73.3692418  82.4506700  74.8190127
  75.7063598  78.8224348  75.4200118  75.6925166  77.9265441  75.0832416
  76.4236026  78.8295011  76.0538404  77.5589728  79.2561688  77.4653245
  77.3007506  80.1778758  77.4637576  77.0274769  78.8592122  78.1553710
  82.5035917  92.3612475  70.2443331  82.6772795  91.7958897  69.4917183
  82.9964808  93.1613370  70.0622821  75.1100494  77.7038728  70.6887688
  75.2316405  76.7755374  70.8878576  74.8202536  77.7177414  69.7766004
  77.9791684  75.3893638  73.8254408  78.0013381  75.4532971  72.8706388
  78.3959743  74.5498147  74.0194914  88.3575308  85.1248898  71.8633631
  88.8006454  84.3756223  71.4652754  87.4801819  85.1159034  71.4807363
  83.4911090  91.6779239  67.3440229  84.1861994  92.2985932  67.5627544
  83.8334240  90.8274591  67.6192607  85.3902513  89.1278945  68.8727560
  85.9153837  89.4666218  68.1476880  85.3024865  88.1925960  68.6890694
  77.0522561  93.0413018  81.0017436  77.3609688  92.7962165  81.8740136
  77.8498043  93.2459657  80.5136307  77.0743173  95.1950928  73.2322813
  76.6348164  94.7027307  73.9255670  77.8251290  94.6523896  72.9914888
  69.5535512  91.3862469  73.2347441  70.3793532  91.0866241  72.8546085
  69.2029564  90.6170091  73.6837230  74.5217046  90.7388937  75.3045115
  73.8997055  90.0759642  75.0047343  75.1921912  90.7650069  74.6218762
  67.7544117  89.3048795  74.1936375  66.9176026  88.8770970  74.0120376
  67.7267763  89.4981239  75.1307166  85.0796419  89.7611848  84.1778758
  84.2891962  89.7435987  83.6383257  84.8429773  90.3000142  84.9327794
  85.1994294  86.6104315  81.4911486  85.2492299  86.4454322  82.4327009
  85.0908217  85.7431574  81.1009367  74.0830552  89.2892861  68.7803575
  74.2318673  89.9728325  68.1270248  74.8896996  89.2697951  69.2953031
  82.4898056  82.5935243  82.8070793  83.3907919  82.4541708  82.5154791
  82.5646031  82.7589698  83.7468971  76.8240862  79.9702098  81.6523979
  75.9544171  80.2635664  81.3806568  77.0600342  80.5542543  82.3731243
  86.7012491  89.0301256  81.7353508  86.4097299  89.3931237  82.5716969
  86.0884622  88.3168265  81.5566840  87.9008173  86.5954136  74.2556078
  88.7355064  87.0343940  74.4193638  88.0367302  86.1192789  73.4364324
  84.9499679  84.1533871  80.2033566  85.4253800  84.3461517  79.3952417
  84.0265244  84.2093057  79.9576950  71.8383185  85.3158038  69.7864644
  71.5929227  84.4120368  69.9844854  72.0079100  85.3175189  68.8444122
  79.5279895  76.1881715  79.1689400  80.0461839  76.9242741  78.8435888
  79.1735028  76.4945708  80.0036159  71.1078833  81.0486396  67.2850806
  70.4148078  81.1230751  66.6290842  70.8630585  80.2846739  67.8072323
  79.7792490  72.6081997  74.6890296  80.0594243  71.9405186  75.3150723
  80.5643096  72.8011093  74.1764960  77.5825958  91.7840991  66.2515323
  77.0099925  92.4031178  65.7985795  78.1558752  92.3340353  66.7855245
  83.6501348  81.0299631  78.4361871  84.6018771  81.1297729  78.4574096
  83.4804798  80.2377900  78.9459956  81.6715727  78.1155214  78.6221272
  81.0765659  78.3960227  77.9267761  81.3865424  78.6049115  79.3938014
  80.8023218  92.0678141  67.3823905  81.7353891  92.0023703  67.5856780
  80.7146431  92.9034408  66.9238438  83.4311234  91.3844011  64.3427853
  83.3524866  91.0503875  65.2363610  84.2520901  91.8765779  64.3419325
  86.1289426  84.2505751  77.5504171  86.0965746  83.3121752  77.7363855
  86.7390049  84.3289787  76.8169996  77.9672757  83.1201804  63.5931375
  78.9131861  82.9908012  63.6619793  77.5887001  82.3816466  64.0700803
  86.2783914  81.0416794  77.5962454  85.7622963  80.2575251  77.4092383
  87.1623863  80.7135511  77.7608974  83.9394641  74.7857810  73.5558267
  83.7419462  74.4772898  74.4401599  84.5494347  75.5119449  73.6856197
  91.9465976  85.3121758  76.6910208  92.6769364  85.0507046  77.2517911
  91.3372921  84.5750480  76.7312276  90.0281273  83.4529620  77.2884659
  89.3014436  83.3185585  76.6801151  89.6128560  83.7606449  78.0941377
  77.8511449  87.1719550  85.0532032  78.7714459  87.3498149  85.2472079
  77.8161032  86.2275595  84.9011731  76.1515674  81.0451780  63.5286260
  75.2447129  80.7484893  63.6048974  76.4291655  80.7481598  62.6620547
  70.8473522  85.0820585  77.6954813  71.0659531  86.0137692  77.7142847
  71.2599295  84.7228559  78.4809617  77.7677739  75.5888670  69.6830502
  76.9578468  75.2435755  70.0585748  78.4562156  75.2796214  70.2718113
  79.6968288  74.6666717  71.3054798  80.2499326  75.0862170  71.9644821
  79.9338374  73.7402465  71.3477754  75.7201387  80.6553790  87.0857562
  75.6198114  81.6048147  87.0169653  75.5022929  80.3272029  86.2133632
  74.9214458  77.9038715  63.6698240  75.7833622  78.2293614  63.9294057
  75.1064802  77.1170211  63.1571305  66.9381874  85.9861055  75.9478428
  66.2445345  85.5715008  75.4348383  67.6854865  86.0281592  75.3511847
  83.0747095  76.7767242  70.8133463  82.4945764  77.4352046  70.4311515
  82.8083027  75.9544586  70.4020880  81.5250661  76.1772300  73.0154783
  82.0250440  76.2888834  72.2069102  82.1686269  75.8733352  73.6555591
  75.5832657  84.0850929  85.9022624  75.0999739  84.8851289  86.1086513
  75.6693596  84.0958874  84.9490068  68.8518617  85.9179309  73.8244443
  68.8289305  86.0166996  72.8726326  69.1619253  86.7644460  74.1461609
  71.5105994  87.9755464  77.9391058  72.4649248  87.9439406  77.8720989
  71.3118518  87.5146088  78.7541284  72.1005377  86.5456580  80.5061855
  72.9198266  87.0400659  80.5296693  72.3742184  85.6288548  80.4779423
  81.8571973  78.9367332  69.8689811  80.9697828  79.2216983  69.6510006
  82.2725962  78.7761096  69.0217088  85.2086509  78.9613853  73.5844150
  85.9846899  79.4510306  73.8568767  84.4834643  79.3871907  74.0416020
  87.6459068  79.6741472  74.6418091  88.2403558  79.4337208  73.9311399
  87.7185651  78.9548603  75.2691627  69.8656223  93.5175083  74.9561256
  69.7310691  92.7575484  74.3899254  69.4488286  94.2415983  74.4890044
  81.0015186  88.7012007  63.9637831  81.7051036  88.9062009  64.5795486
  80.2777835  89.2688769  64.2286914  81.8312997  84.4521868  70.0840101
  81.7748198  84.9090420  69.2447733  82.3841339  83.6912553  69.9062944
  85.6417802  80.2411600  70.9090221  85.3854737  79.8408236  71.7398428
  85.0170670  80.9555394  70.7840360  89.9530140  82.9807673  73.4161512
  89.3929698  83.0500863  74.1893074  89.3473644  82.8048658  72.6961008
  73.0225349  94.4144400  75.1679698  72.9057733  95.3589833  75.0658388
  72.2017795  94.1117962  75.5565497  82.9101884  89.1394536  66.0136291
  83.7447488  88.7075735  65.8313766  82.7486227  88.9676550  66.9413185
  82.5647776  85.6426649  67.3792630  82.5096580  85.4770921  66.4381074
  81.9393831  86.3502682  67.5354820  79.8793683  87.9475561  86.7046193
  80.7484843  88.1216214  86.3432828  79.4000435  88.7669978  86.5821922
  75.8743901  75.1434758  66.9577949  75.8622571  76.0876598  67.1146219
  76.7667323  74.9604904  66.6637410  74.0479863  95.0672662  78.3835627
  74.9507110  95.0996273  78.7002122  73.8217233  94.1373113  78.3981962
  75.8033465  93.8203649  75.0445705  74.8529096  93.8205510  74.9310078
  76.1065951  93.0736383  74.5281740  91.5386159  99.6564187  76.1091468
  92.1764569  99.5370935  75.4054808  91.4207002 100.6045031  76.1679420
  88.3475865  99.6091615  76.0452992  88.0094377  99.4932680  75.1573527
  89.2165633  99.2082780  76.0253998  84.2062681 101.4627092  72.0349883
  83.6427546 101.3717029  71.2666171  84.0915076 100.6426996  72.5152376
  88.8295648 100.7626467  82.0039198  88.8184289 100.3679265  81.1319702
  88.9916288 100.0292540  82.5972969  81.7527113 102.9578283  74.8734104
  82.5448405 102.6169108  74.4580403  81.9923763 103.0673258  75.7936257
  89.7862239 105.1298059  67.3464348  89.1350219 105.7152140  66.9598362
  90.5806602 105.6604254  67.4059386  83.7117867 102.2187197  67.7451483
  84.4848743 101.6716184  67.6064358  84.0643265 103.0831446  67.9565944
  85.5502909 103.5463579  80.9518382  85.2592775 104.4509210  80.8365048
  86.1859894 103.5880106  81.6662451  86.4759116 100.9240427  77.5419741
  87.0722688 100.6996450  76.8276704  86.5334088 100.1825173  78.1445189
  86.0484144  98.3779863  65.3769932  86.3009665  97.8561384  64.6153395
  85.1108704  98.2146008  65.4796616  91.0927427  97.3815641  73.1844676
  91.8790516  96.9635064  72.8335093  91.3566132  98.2861733  73.3526324
  91.2637505 102.8188491  67.8833333  90.6283338 102.8923118  68.5954237
  90.9334911 103.4082090  67.2052412  96.4935854  97.3190874  74.0877654
  97.2261026  96.7490091  74.3215484  95.7375210  96.9312475  74.5284160
  85.7680433 100.2807969  67.5794307  85.6516691  99.6052872  68.2475392
  85.8782693  99.7940343  66.7626460  88.1111974  99.7418116  71.2840997
  87.7470181  99.2148737  71.9953918  88.9679090  99.3516585  71.1107482
  94.0161275  91.0312448  78.5472263  93.6844600  91.9007859  78.3233478
  93.4206888  90.7148732  79.2266293  87.7517461  94.7708015  66.2802345
  87.9191863  95.6388252  66.6472816  87.5614630  94.9335297  65.3563634
  90.5092794 103.2324994  77.9468176  90.2093517 104.1350033  77.8383983
  90.1643854 102.9657178  78.7989328  83.9605276  99.6838791  73.9804880
  83.0355772  99.5515005  74.1882572  84.2089689 100.4633010  74.4774822
  93.9089938  95.7507535  75.6265613  93.0006815  95.6822943  75.3324374
  93.8577534  96.2279479  76.4547438  87.7306682  97.2265673  67.2649012
  87.6106307  97.6722724  68.1034492  87.0359270  97.5750991  66.7062550
  81.3214087  99.3272065  74.8148669  81.4506468  99.5806544  75.7288081
  80.6411538  99.9199773  74.4953324  85.4913574 109.9969315  70.9139143
  85.4137604 110.9477140  70.9927624  84.8875218 109.6515187  71.5714070
  87.9830804  97.1697180  83.5700510  87.2064138  97.7291100  83.5603375
  88.6221367  97.6553963  84.0915380  95.7751584  93.9523973  77.4043487
  95.1325965  94.2456506  76.7583281  95.2706513  93.8376893  78.2096683
  93.4291748  97.6987146  68.0929346  94.3409604  97.9314533  67.9177044
  92.9201395  98.2824190  67.5304425  86.2377176  99.9782633  83.1318477
  86.9791861 100.5167677  82.8553301  85.5314162 100.6048922  83.2890029
  91.7132516 102.1211774  81.7290639  92.1215872 101.6794184  80.9845271
  90.9909777 101.5464401  81.9824832  88.0663586  97.0584381  79.1024196
  88.9124781  97.4823794  79.2458845  88.0062223  96.4018005  79.7962759
  92.0361330 102.6812965  75.4842928  91.4070193 102.8458679  74.7818995
  91.6486992 103.0954574  76.2553892  95.9150562 103.6167402  72.8387291
  95.2301600 103.9966304  72.2884325  95.9994412 104.2262729  73.5719239
  91.2163031  94.7188749  80.7605369  90.9723963  95.4730810  80.2239645
  91.4922962  95.0974097  81.5952616  93.1701494 101.2627361  79.4382635
  93.3818389 101.9059121  78.7617016  93.1231242 100.4289678  78.9704565
  90.7727723  93.8745182  76.3419207  89.9112202  94.1726436  76.6335945
  90.7990158  94.0915581  75.4100240  87.5889292 102.4187373  72.7493013
  88.0527638 102.6975076  71.9597635  87.3246090 101.5170817  72.5666103
  84.4813373 101.9658854  75.6872776  85.0514730 102.3946123  75.0490260
  85.0721485 101.6841439  76.3856962  86.5258178  98.5410525  69.5582578
  87.2282222  98.9931569  70.0256504  86.1938807  97.8994344  70.1862471
  84.9738540  97.1322282  83.9333787  84.3437200  97.8138562  84.1669184
  84.8674628  97.0205363  82.9886925  80.2683512  96.7994078  74.8599711
  79.4782566  97.0551606  74.3839822  80.7594760  97.6142416  74.9651752
  94.2847322 104.1399317  77.6104992  95.1064766 103.7379504  77.3287674
  94.2809725 104.0367551  78.5621108  82.2198258  97.1638657  71.8183188
  81.4229421  97.2757351  72.3366684  81.9923850  97.5025309  70.9524079
  88.0503925 103.6883360  79.7665703  88.1148358 104.1503767  80.6023874
  87.3414849 103.0580725  79.8948012  78.5521215  97.0524568  77.2914702
  78.8029254  97.9371578  77.5572278  79.0880764  96.8729170  76.5189794
 102.3753315 100.4838065  73.9589964 101.6217023  99.9145463  73.8033968
 102.5100856 100.4500730  74.9060598  87.7651943 105.3551468  69.6344683
  87.6297618 106.2003003  70.0629531  88.3061755 105.5570745  68.8710617
  84.2519283  91.4343047  86.2959038  83.8586228  90.8809246  86.9706682
  85.0685423  91.7453626  86.6865556  81.2181340 102.8726906  70.2072608
  81.7305861 103.6670156  70.3578173  81.8704053 102.1753196  70.1406210
  83.0276225 105.9892662  72.2895361  83.2042853 106.9110627  72.1016345
  83.8233059 105.6751081  72.7189741  87.1687244  92.8500927  83.8879295
  87.9096957  93.4508080  83.8083757  87.4005166  92.1078564  83.3297337
  82.3128582  98.0357294  82.1657524  82.1982097  97.1342551  82.4664623
  81.4573099  98.2820991  81.8142341  89.3920419 105.9775034  83.7645025
  88.9484274 105.1911413  83.4465930  90.0537633 106.1654185  83.0988916
  84.1507541 107.5070836  78.2905704  84.7014966 107.3787899  77.5182697
  83.3119016 107.8065725  77.9400596  91.4901657 106.2577834  81.7926426
  91.4720133 107.0786715  81.3006695  92.4121577 106.1331909  82.0176567
  87.9474712 103.7721964  82.6349935  88.4803048 103.0110252  82.4049243
  87.4188793 103.4795615  83.3774089  91.1144407  88.8782030  78.1643576
  90.7708676  89.7683671  78.0882687  91.4823369  88.6883687  77.3013161
  79.1830257 101.2015560  70.9832179  80.0205479 101.6112568  70.7665886
  79.3608525 100.2615002  70.9532372  91.0794689  98.8690641  66.6716012
  90.5641313  99.6395245  66.9104399  90.8071998  98.1955777  67.2949073
  88.6641800  93.7140341  71.7301250  87.8083397  93.3247192  71.5506889
  89.0768752  93.7932302  70.8701035  90.1940947  91.2486685  76.1292810
  89.6905743  91.2116820  75.3160615  90.4871554  92.1579427  76.1889466
  86.4383833  91.3325414  75.1358991  87.3036830  91.1368223  74.7764881
  86.5061342  91.1035766  76.0628348  96.0528963 101.6222995  68.6069185
  95.2758406 101.2834155  68.1624347  96.7320444 101.6275618  67.9324150
  90.8680992  96.7417733  68.4975793  90.5631128  97.0563882  69.3485936
  91.8211435  96.8199153  68.5403126  89.3127424 102.9007956  70.1468747
  88.7848786 102.1660716  69.8341984  88.8114927 103.6782632  69.9008715
  94.2920270 101.0956977  75.2635793  93.6343945 101.7856238  75.3515922
  95.0960670 101.4853408  75.6069779  84.0446152  93.5627622  72.5075358
  84.6189904  93.3402804  71.7748551  84.6317134  93.6316317  73.2603960
  93.1025729  99.4501349  73.3139735  93.6157611 100.0831341  73.8161444
  93.7526953  98.8502545  72.9483095  84.3715739  95.5932083  66.5271243
  83.5353051  95.9306770  66.8480518  84.2320509  95.4581063  65.5898380
  86.3468820  90.4368871  71.2350428  85.6933232  90.1217888  70.6107042
  86.3049294  89.8144612  71.9610251  87.4580024 100.7188166  63.1503720
  86.5507086 100.4877420  63.3494869  87.9551056  99.9225786  63.3377701
  90.3648103 109.4285673  66.0700406  89.6909802 109.7317370  66.6785364
  90.7513925 110.2314754  65.7205863  89.5806560  96.9250805  75.5598075
  88.6629121  97.1465752  75.4019763  89.9966704  96.9997115  74.7009783
  90.3641608  98.3242220  70.6900756  91.1113427  98.8363618  70.3807878
  90.6333197  98.0026273  71.5505149  88.6368258 100.8200761  67.6727710
  87.7279477 100.5359794  67.7700180  88.6663342 101.2399840  66.8131017
  93.8687525 104.4307351  71.4418877  93.4149852 103.5898261  71.4984068
  93.2381492 105.0668749  71.7793658  92.8120445  95.3599337  72.6719545
  92.0743202  94.8476723  73.0029787  93.0647218  94.9199718  71.8602822
  92.3120465 106.2683847  72.3768696  92.6043439 106.8288904  71.6581061
  92.8219085 106.5612408  73.1321855  92.9132072  88.1375589  73.2661314
  93.2190949  87.2772952  72.9787229  93.6384677  88.7293209  73.0660308
  79.2056428  98.5406275  71.6542912  79.0080828  97.9475636  70.9293979
  78.6503092  98.2358485  72.3718851  87.1853152  98.4329382  73.7737505
  87.2401762  97.4803218  73.6979982  86.3744354  98.5888821  74.2578804
  88.3344346 102.3609505  65.0115788  87.8963776 101.6445364  64.5521426
  89.0754787 102.5885620  64.4500880  85.1245512  97.0506442  71.5327884
  84.3113377  97.3500612  71.9393076  85.6204506  96.6562130  72.2502366
  87.2754090 107.0464198  73.4662149  87.2330269 107.2725045  72.5370681
  88.1916789 106.8127573  73.6147950  90.7219724  97.5148266  80.3642778
  91.0769111  97.7419739  81.2237244  91.3691855  97.8466643  79.7420033
  96.4517460 100.6366702  71.0692107  96.3135359 100.8268298  70.1413296
  96.0953679 101.3986085  71.5260158  84.6159587  94.6224797  77.1489119
  85.2558966  94.4813556  76.4512082  83.7837117  94.3359310  76.7727721
  96.4786840 102.7043229  76.0803378  96.9123347 102.6118518  76.9286433
  97.1918421 102.6800729  75.4423394  85.3919891 103.9227227  73.2624111
  86.1860489 103.4277548  73.0606686  84.6811583 103.3945091  72.8991817
  90.2114735 106.3045323  77.6136479  90.2651757 106.8736259  78.3814195
  89.3429516 106.4747208  77.2490516  81.7002654  98.0670309  69.3383864
  80.7700242  98.0054765  69.5553826  81.7960126  97.5446262  68.5420505
  81.6188203  94.5925122  71.9262106  81.8795020  95.5070455  71.8171266
  82.4405375  94.1249565  72.0758719  83.0913128  96.0062879  79.0960930
  83.7636182  95.7980241  78.4473579  82.2642915  95.8084965  78.6566163
  97.3402390 102.7466930  78.6136264  97.5338280 103.6512740  78.8595539
  97.2403008 102.2874349  79.4474849  88.9938700  92.6324820  81.1126591
  88.3466615  93.3314770  81.0191068  89.7639716  93.0660964  81.4802839
  92.4017498 102.8973672  84.1877144  92.2503005 102.6684224  83.2707228
  92.3922178 103.8544274  84.2008489  89.1702835 100.4705585  79.1723411
  90.0994895 100.6216745  78.9992378  88.7493865 100.5589606  78.3172057
  87.9691167 104.4956249  76.9421949  87.8302252 104.1275034  77.8147887
  87.1805763 105.0103889  76.7705906  88.5639318 109.5965346  68.2847485
  88.7391074 109.1253389  69.0993108  87.8772107 110.2231112  68.5128746
  89.5196382 103.8737852  74.3310786  89.1846214 103.8338622  75.2268436
  89.0200327 103.2082568  73.8581197  83.4940626  99.2805482  79.8563367
  83.3560424  98.5485721  80.4574907  84.4045549  99.1914382  79.5747555
  92.4555573 101.2193886  64.6047846  91.8384744 100.4940715  64.5080899
  91.9872062 101.9803247  64.2614920  86.1222926  98.9925441  79.3447047
  86.8322545  98.3518634  79.3033666  86.0792234  99.2438336  80.2673228
  94.1109705 105.9292795  82.2653626  94.0522251 105.2452015  81.5984209
  94.5129223 106.6711785  81.8134252  84.8351860  95.9790659  81.1642687
  84.2989217  95.5281398  81.8164283  84.2468569  96.1136568  80.4213151
  83.1300404 112.7454709  75.0587345  83.3697002 113.3773233  75.7366364
  82.2869600 112.3942749  75.3452705  84.2454119  95.4379311  63.7269150
  83.3683586  95.3168112  63.3631397  84.7211872  94.6465389  63.4748039
  94.1127112 103.8932379  80.4967606  93.2253891 103.5558301  80.6194005
  94.6825663 103.1615410  80.7336371  75.7656259 100.2256471  73.8210657
  76.4527299  99.9118201  73.2331673  75.6104388 101.1297835  73.5477909
  80.5690982  95.1146667  78.2495681  80.4849170  94.5072337  77.5146091
  79.7473688  95.6055685  78.2505177  87.6428266 108.5533831  77.4628849
  87.5698437 109.3588803  77.9748154  87.2005659 108.7525797  76.6376871
  87.4318045 107.7905601  70.9731671  86.6485567 108.3327281  71.0669895
  88.1310790 108.3079581  71.3725912  90.7414695  93.6000231  73.6165876
  91.2383395  92.8470193  73.2966946  89.9701677  93.6364547  73.0509085
  98.5944453  99.3040596  75.2584168  98.5834329 100.1865312  74.8878101
  97.7261832  98.9512147  75.0638705  90.1026949 108.4520665  79.6187008
  90.8154921 109.0868130  79.5462909  89.6116978 108.5484531  78.8027010
  91.8244476 102.3571918  71.1904300  90.8900755 102.4773380  71.0209004
  92.0021145 101.4544385  70.9264309  87.3249664  95.7417614  73.3437561
  86.9547452  95.1888654  74.0318466  87.8208757  95.1375747  72.7912561
  95.2117027  98.1989237  71.7254334  95.6777480  99.0317229  71.6514636
  95.6624528  97.7334219  72.4299592  85.1538863 106.2015109  80.4392579
  85.8548322 106.8351592  80.5921973  84.6833978 106.5429840  79.6788218
  93.2793259 104.5433058  68.7240486  93.5553102 104.4289653  69.6334360
  92.4097757 104.1450543  68.6852659  93.1833690  90.5669824  75.7645235
  92.2696770  90.7974051  75.9327442  93.6126792  90.6508268  76.6159267
  92.9540149  98.7559716  78.2645129  92.3011599  99.0035624  77.6097582
  93.3320529  97.9423854  77.9307606  89.9147323 108.7919409  72.3673299
  90.0969717 107.9741065  72.8301052  90.7380309 109.0087101  71.9298189
  90.2489488 107.7187594  69.6288348  90.7777254 107.2080049  69.0158510
  90.5117708 107.4030125  70.4933881  89.0027722  99.4979527  84.7511166
  88.3268359  99.3973656  85.4213541  89.8255356  99.3418741  85.2147163
  80.7506581 105.7351464  77.3723681  81.3360018 104.9895152  77.5051586
  80.5531419 106.0455420  78.2560345  83.6045236 108.7702711  72.3886124
  82.9355611 109.2548839  71.9050164  83.4658106 109.0171931  73.3029502
  75.3424235  98.3057064  76.0928125  75.3808335  97.7720655  76.8865243
  74.8364528  97.7792269  75.4739102  87.7450505 110.8046455  78.9868782
  88.2968813 110.9678076  79.7517867  88.0856698 111.3950892  78.3148807
  82.7214998  93.1521604  79.5890667  82.7856324  94.0136435  79.1768065
  82.6582118  92.5395606  78.8563025  82.1967270  95.2244737  83.2363701
  82.8239309  94.8421814  83.8501225  81.3395189  95.0058939  83.6019394
  92.5961379 105.6307712  84.8417437  93.1401283 106.2437670  84.3472391
  92.0148224 106.1887290  85.3584450  78.9732813  97.0321166  69.1682056
  79.2686254  96.1231844  69.1149110  78.0720849  97.0108905  68.8463058
  90.8818892 108.7528430  75.9732464  90.7570031 107.9518170  75.4643410
  91.5397983 109.2474623  75.4846434  82.5027060  95.1077163  75.1509605
  81.7813646  95.7213130  75.0117078  83.2920316  95.6434927  75.0726250
  92.9453800 106.5537450  77.6012014  91.9984136 106.4342801  77.5290341
  93.2936573 105.6659948  77.6838276  85.3053374  92.4431589  81.4250256
  85.8287775  92.6893886  82.1876566  85.0865707  93.2751624  81.0053394
  80.7020655  94.7135264  69.2921381  80.3733361  93.8332643  69.1096487
  81.0560025  94.6582932  70.1797770  89.9500234 106.3490166  73.8016367
  89.8025196 105.4206874  73.9823937  90.7753727 106.3710257  73.3173442
  83.8162478  95.0008233  69.6596859  84.1558550  95.5294155  68.9375467
  84.2634598  95.3388640  70.4355425  93.5534355 107.1718725  74.8881239
  94.4780903 106.9661586  74.7505691  93.3849659 106.9235126  75.7970581
  86.5105919  93.3845284  79.1099927  86.1702739  92.5853097  79.5120607
  85.8044925  93.6846995  78.5376760  87.1622390  90.4694597  77.5627250
  87.9848460  89.9955075  77.4406140  87.4060454  91.2485080  78.0625936
  85.8030625  93.4982855  67.8590152  86.5238987  93.8764108  67.3553868
  85.1795929  94.2171732  67.9625129  89.9461748  94.2028004  68.7948484
  90.1625362  95.0852642  68.4937312  89.4655815  93.8114217  68.0654126
  84.6860969  97.1613717  75.3719228  84.5405550  97.4754020  76.2643510
  84.2086173  97.7798618  74.8190127  86.5457352  94.1516265  75.4200118
  86.5318921  93.2557359  75.0832416  87.2629780  94.1586929  76.0538404
  88.3983483  94.5853605  77.4653245  88.1401261  95.5070676  77.4637576
  87.8668523  94.1884040  78.1553710  93.3429672 107.6904393  70.2443331
  93.5166549 107.1250815  69.4917183  93.8358563 108.4905287  70.0622821
  79.1606631  99.7019062  78.3106890  78.6160099 100.4778870  78.4427164
  80.0385981 100.0489866  78.1526011  85.9494248  93.0330646  70.6887688
  86.0710159  92.1047292  70.8878576  85.6596290  93.0469331  69.7766004
  88.8185438  90.7185556  73.8254408  88.8407135  90.7824889  72.8706388
  89.2353497  89.8790065  74.0194914  99.1969063 100.4540816  71.8633631
  99.6400209  99.7048141  71.4652754  98.3195573 100.4450952  71.4807363
  94.3304844 107.0071157  67.3440229  95.0255749 107.6277850  67.5627544
  94.6727994 106.1566508  67.6192607  79.9472653  98.8288958  81.2037046
  79.2054389  98.9771593  81.7901677  79.6265398  99.0897224  80.3403796
  96.2296267 104.4570863  68.8727560  96.7547591 104.7958135  68.1476880
  96.1418620 103.5217878  68.6890694  87.8916316 108.3704936  81.0017436
  88.2003442 108.1254083  81.8740136  88.6891798 108.5751575  80.5136307
  87.9136928 110.5242846  73.2322813  87.4741918 110.0319224  73.9255670
  88.6645045 109.9815813  72.9914888  80.3929267 106.7154387  73.2347441
  81.2187287 106.4158159  72.8546085  80.0423319 105.9462009  73.6837230
  85.3610800 106.0680855  75.3045115  84.7390809 105.4051560  75.0047343
  86.0315667 106.0941987  74.6218762  78.5937872 104.6340713  74.1936375
  77.7569780 104.2062887  74.0120376  78.5661517 104.8273156  75.1307166
  85.4335328  94.5462643  84.8977621  85.4823483  95.4224766  84.5155390
  85.9757842  94.0040036  84.3249264  95.9190173 105.0903766  84.1778758
  95.1285717 105.0727905  83.6383257  95.6823528 105.6292060  84.9327794
  96.0388048 101.9396233  81.4911486  96.0886053 101.7746240  82.4327009
  95.9301972 101.0723492  81.1009367  84.9224307 104.6184778  68.7803575
  85.0712427 105.3020243  68.1270248  85.7290750 104.5989868  69.2953031
  93.3291811  97.9227161  82.8070793  94.2301673  97.7833625  82.5154791
  93.4039785  98.0881615  83.7468971  87.6634616  95.2994015  81.6523979
  86.7937925  95.5927581  81.3806568  87.8994096  95.8834460  82.3731243
  97.5406245 104.3593174  81.7353508  97.2491053 104.7223155  82.5716969
  96.9278376 103.6460182  81.5566840  98.7401927 101.9246054  74.2556078
  99.5748819 102.3635858  74.4193638  98.8761056 101.4484707  73.4364324
  95.7893433  99.4825789  80.2033566  96.2647555  99.6753435  79.3952417
  94.8658999  99.5384974  79.9576950  82.6776940 100.6449956  69.7864644
  82.4322982  99.7412286  69.9844854  82.8472855 100.6467106  68.8444122
  90.3673650  91.5173632  79.1689400  90.8855594  92.2534659  78.8435888
  90.0128783  91.8237626  80.0036159  81.9472587  96.3778313  67.2850806
  81.2541832  96.4522668  66.6290842  81.7024339  95.6138657  67.8072323
  90.6186244  87.9373915  74.6890296  90.8987998  87.2697104  75.3150723
  91.4036851  88.1303010  74.1764960  88.4219713 107.1132909  66.2515323
  87.8493680 107.7323096  65.7985795  88.9952506 107.6632270  66.7855245
  94.4895102  96.3591549  78.4361871  95.4412525  96.4589646  78.4574096
  94.3198553  95.5669817  78.9459956  92.5109482  93.4447132  78.6221272
  91.9159414  93.7252145  77.9267761  92.2259179  93.9341033  79.3938014
  91.6416972 107.3970059  67.3823905  92.5747645 107.3315620  67.5856780
  91.5540185 108.2326326  66.9238438  94.2704989 106.7135929  64.3427853
  94.1918620 106.3795793  65.2363610  95.0914656 107.2057697  64.3419325
  96.9683180  99.5797668  77.5504171  96.9359500  98.6413669  77.7363855
  97.5783804  99.6581705  76.8169996  88.8066511  98.4493721  63.5931375
  89.7525616  98.3199930  63.6619793  88.4280756  97.7108383  64.0700803
  97.1177669  96.3708712  77.5962454  96.6016717  95.5867169  77.4092383
  98.0017617  96.0427428  77.7608974  94.7788396  90.1149727  73.5558267
  94.5813217  89.8064816  74.4401599  95.3888101  90.8411366  73.6856197
 102.7859730 100.6413675  76.6910208 103.5163118 100.3798963  77.2517911
 102.1766675  99.9042397  76.7312276 100.8675027  98.7821538  77.2884659
 100.1408191  98.6477503  76.6801151 100.4522314  99.0898366  78.0941377
  88.6905204 102.5011468  85.0532032  89.6108213 102.6790067  85.2472079
  88.6554787 101.5567513  84.9011731  86.9909428  96.3743698  63.5286260
  86.0840884  96.0776811  63.6048974  87.2685409  96.0773516  62.6620547
  77.9087369  97.6950061  73.9785307  77.5890153  96.8415369  73.6859681
  77.3620797  97.9098639  74.7343274  81.6867276 100.4112502  77.6954813
  81.9053286 101.3429610  77.7142847  82.0993050 100.0520477  78.4809617
  88.6071494  90.9180588  69.6830502  87.7972222  90.5727672  70.0585748
  89.2955911  90.6088131  70.2718113  90.5362042  89.9958634  71.3054798
  91.0893081  90.4154088  71.9644821  90.7732129  89.0694382  71.3477754
  86.5595141  95.9845708  87.0857562  86.4591868  96.9340065  87.0169653
  86.3416683  95.6563947  86.2133632  85.7608213  93.2330633  63.6698240
  86.6227377  93.5585531  63.9294057  85.9458557  92.4462129  63.1571305
  77.7775629 101.3152973  75.9478428  77.0839100 100.9006926  75.4348383
  78.5248620 101.3573509  75.3511847  93.9140849  92.1059159  70.8133463
  93.3339518  92.7643964  70.4311515  93.6476782  91.2836504  70.4020880
  92.3644416  91.5064217  73.0154783  92.8644194  91.6180752  72.2069102
  93.0080024  91.2025270  73.6555591  86.4226411  99.4142847  85.9022624
  85.9393493 100.2143207  86.1086513  86.5087351  99.4250792  84.9490068
  79.6912371 101.2471226  73.8244443  79.6683059 101.3458914  72.8726326
  80.0013008 102.0936377  74.1461609  82.3499749 103.3047382  77.9391058
  83.3043003 103.2731324  77.8720989  82.1512273 102.8438005  78.7541284
  82.9399131 101.8748498  80.5061855  83.7592020 102.3692576  80.5296693
  83.2135939 100.9580466  80.4779423  92.6965727  94.2659250  69.8689811
  91.8091582  94.5508900  69.6510006  93.1119716  94.1053013  69.0217088
  96.0480263  94.2905771  73.5844150  96.8240654  94.7802223  73.8568767
  95.3228398  94.7163825  74.0416020  98.4852822  95.0033390  74.6418091
  99.0797313  94.7629126  73.9311399  98.5579406  94.2840521  75.2691627
  80.7049978 108.8467001  74.9561256  80.5704446 108.0867402  74.3899254
  80.2882040 109.5707901  74.4890044  91.8408941 104.0303925  63.9637831
  92.5444791 104.2353927  64.5795486  91.1171590 104.5980686  64.2286914
  92.6706751  99.7813786  70.0840101  92.6141952 100.2382337  69.2447733
  93.2235093  99.0204470  69.9062944  96.4811557  95.5703518  70.9090221
  96.2248491  95.1700153  71.7398428  95.8564425  96.2847312  70.7840360
 100.7923895  98.3099591  73.4161512 100.2323453  98.3792780  74.1893074
 100.1867398  98.1340576  72.6961008  83.8619104 109.7436318  75.1679698
  83.7451488 110.6881751  75.0658388  83.0411550 109.4409880  75.5565497
  93.7495638 104.4686454  66.0136291  94.5841242 104.0367652  65.8313766
  93.5879981 104.2968467  66.9413185  93.4041530 100.9718567  67.3792630
  93.3490334 100.8062838  66.4381074  92.7787586 101.6794600  67.5354820
  78.1934045  96.2086631  81.2054052  78.8392909  95.6985585  81.6941278
  77.9851196  96.9455313  81.7797478  90.7187438 103.2767479  86.7046193
  91.5878597 103.4508131  86.3432828  90.2394189 104.0961896  86.5821922
  86.7137656  90.4726676  66.9577949  86.7016326  91.4168516  67.1146219
  87.6061078  90.2896821  66.6637410  84.8873618 110.3964580  78.3835627
  85.7900864 110.4288190  78.7002122  84.6610988 109.4665031  78.3981962
  86.6427220 109.1495566  75.0445705  85.6922851 109.1497428  74.9310078
  86.9459706 108.4028301  74.5281740  90.5289775  87.0669453  71.2123885
  89.7622171  86.5127939  71.3580568  90.9400480  87.1391321  72.0738037
  82.5331536  93.3554248  85.3029067  83.3962998  92.9991053  85.5132391
  81.9596947  93.0168143  85.9904471 102.3779913 114.9856105  76.1091468
 103.0158323 114.8662852  75.4054808 102.2600756 115.9336949  76.1679420
  99.1869620 114.9383533  76.0452992  98.8488131 114.8224598  75.1573527
 100.0559388 114.5374698  76.0253998  95.0456435 116.7919009  72.0349883
  94.4821300 116.7008946  71.2666171  94.9308830 115.9718914  72.5152376
  99.6689403 116.0918385  82.0039198  99.6578043 115.6971183  81.1319702
  99.8310042 115.3584457  82.5972969  92.5920867 118.2870201  74.8734104
  93.3842159 117.9461026  74.4580403  92.8317517 118.3965176  75.7936257
  94.5511621 117.5479114  67.7451483  95.3242497 117.0008101  67.6064358
  94.9037020 118.4123364  67.9565944  96.3896664 118.8755496  80.9518382
  96.0986530 119.7801127  80.8365048  97.0253648 118.9172024  81.6662451
  97.3152871 116.2532345  77.5419741  97.9116443 116.0288367  76.8276704
  97.3727842 115.5117090  78.1445189  96.8877899 113.7071780  65.3769932
  97.1403420 113.1853302  64.6153395  95.9502458 113.5437926  65.4796616
 101.9321182 112.7107559  73.1844676 102.7184271 112.2926982  72.8335093
 102.1959886 113.6153651  73.3526324 102.1031259 118.1480409  67.8833333
 101.4677092 118.2215036  68.5954237 101.7728666 118.7374008  67.2052412
 107.3329609 112.6482792  74.0877654 108.0654781 112.0782009  74.3215484
 106.5768965 112.2604392  74.5284160  96.6074188 115.6099886  67.5794307
  96.4910446 114.9344790  68.2475392  96.7176448 115.1232260  66.7626460
  98.9505729 115.0710033  71.2840997  98.5863936 114.5440654  71.9953918
  99.8072845 114.6808502  71.1107482 104.8555029 106.3604366  78.5472263
 104.5238354 107.2299777  78.3233478 104.2600643 106.0440650  79.2266293
  98.5911216 110.0999933  66.2802345  98.7585618 110.9680170  66.6472816
  98.4008385 110.2627215  65.3563634 101.3486549 118.5616912  77.9468176
 101.0487272 119.4641951  77.8383983 101.0037608 118.2949095  78.7989328
  94.7999030 115.0130709  73.9804880  93.8749527 114.8806923  74.1882572
  95.0483443 115.7924928  74.4774822 104.7483693 111.0799452  75.6265613
 103.8400570 111.0114861  75.3324374 104.6971288 111.5571397  76.4547438
  98.5700436 112.5557591  67.2649012  98.4500062 113.0014641  68.1034492
  97.8753025 112.9042908  66.7062550  92.1607841 114.6563982  74.8148669
  92.2900222 114.9098461  75.7288081  91.4805293 115.2491690  74.4953324
  98.8224558 112.4989098  83.5700510  98.0457892 113.0583018  83.5603375
  99.4615121 112.9845881  84.0915380 106.6145339 109.2815891  77.4043487
 105.9719719 109.5748424  76.7583281 106.1100267 109.1668811  78.2096683
 104.2685503 113.0279064  68.0929346 105.1803359 113.2606451  67.9177044
 103.7595150 113.6116108  67.5304425  97.0770931 115.3074551  83.1318477
  97.8185615 115.8459595  82.8553301  96.3707916 115.9340840  83.2890029
 102.5526270 117.4503692  81.7290639 102.9609626 117.0086102  80.9845271
 101.8303532 116.8756319  81.9824832  98.9057340 112.3876298  79.1024196
  99.7518536 112.8115712  79.2458845  98.8455978 111.7309923  79.7962759
 102.8755085 118.0104882  75.4842928 102.2463947 118.1750596  74.7818995
 102.4880747 118.4246492  76.2553892 102.0556786 110.0480667  80.7605369
 101.8117718 110.8022727  80.2239645 102.3316716 110.4266014  81.5952616
 104.0095248 116.5919279  79.4382635 104.2212144 117.2351039  78.7617016
 103.9624997 115.7581596  78.9704565 101.6121477 109.2037100  76.3419207
 100.7505956 109.5018353  76.6335945 101.6383912 109.4207499  75.4100240
  98.4283047 117.7479290  72.7493013  98.8921392 118.0266993  71.9597635
  98.1639845 116.8462735  72.5666103  95.3207128 117.2950772  75.6872776
  95.8908485 117.7238040  75.0490260  95.9115240 117.0133357  76.3856962
  97.3651933 113.8702443  69.5582578  98.0675976 114.3223486  70.0256504
  97.0332561 113.2286262  70.1862471  95.8132294 112.4614199  83.9333787
  95.1830955 113.1430480  84.1669184  95.7068382 112.3497281  82.9886925
  91.1077267 112.1285995  74.8599711  90.3176321 112.3843524  74.3839822
  91.5988514 112.9434333  74.9651752  93.0592012 112.4930575  71.8183188
  92.2623175 112.6049269  72.3366684  92.8317604 112.8317227  70.9524079
  98.8897680 119.0175278  79.7665703  98.9542112 119.4795685  80.6023874
  98.1808604 118.3872643  79.8948012  89.3914970 112.3816486  77.2914702
  89.6423008 113.2663496  77.5572278  89.9274518 112.2021087  76.5189794
  98.6045697 120.6843385  69.6344683  98.4691372 121.5294921  70.0629531
  99.1455510 120.8862663  68.8710617  95.0913037 106.7634965  86.2959038
  94.6979983 106.2101164  86.9706682  95.9079177 107.0745544  86.6865556
  92.0575095 118.2018823  70.2072608  92.5699615 118.9962074  70.3578173
  92.7097808 117.5045114  70.1406210  93.8669980 121.3184580  72.2895361
  94.0436608 122.2402544  72.1016345  94.6626813 121.0042999  72.7189741
  98.0080998 108.1792844  83.8879295  98.7490711 108.7799997  83.8083757
  98.2398921 107.4370482  83.3297337  93.1522336 113.3649212  82.1657524
  93.0375851 112.4634469  82.4664623  92.2966854 113.6112908  81.8142341
  94.9901295 122.8362753  78.2905704  95.5408720 122.7079817  77.5182697
  94.1512771 123.1357642  77.9400596  98.7868466 119.1013881  82.6349935
  99.3196803 118.3402169  82.4049243  98.2582547 118.8087533  83.3774089
 101.9538161 104.2073947  78.1643576 101.6102430 105.0975589  78.0882687
 102.3217124 104.0175605  77.3013161  90.0224012 116.5307478  70.9832179
  90.8599234 116.9404486  70.7665886  90.2002279 115.5906920  70.9532372
 101.9188444 114.1982558  66.6716012 101.4035067 114.9687163  66.9104399
 101.6465752 113.5247694  67.2949073  99.5035555 109.0432259  71.7301250
  98.6477151 108.6539109  71.5506889  99.9162507 109.1224220  70.8701035
 101.0334701 106.5778602  76.1292810 100.5299497 106.5408738  75.3160615
 101.3265308 107.4871345  76.1889466  97.2777587 106.6617332  75.1358991
  98.1430584 106.4660141  74.7764881  97.3455096 106.4327684  76.0628348
 101.7074747 112.0709650  68.4975793 101.4024882 112.3855800  69.3485936
 102.6605189 112.1491070  68.5403126 100.1521179 118.2299874  70.1468747
  99.6242540 117.4952633  69.8341984  99.6508681 119.0074550  69.9008715
  94.8839906 108.8919540  72.5075358  95.4583658 108.6694721  71.7748551
  95.4710889 108.9608234  73.2603960 103.9419484 114.7793267  73.3139735
 104.4551365 115.4123259  73.8161444 104.5920707 114.1794462  72.9483095
  95.2109493 110.9224001  66.5271243  94.3746806 111.2598688  66.8480518
  95.0714263 110.7872981  65.5898380  97.1862574 105.7660789  71.2350428
  96.5326986 105.4509806  70.6107042  97.1443048 105.1436529  71.9610251
  98.2973779 116.0480084  63.1503720  97.3900841 115.8169337  63.3494869
  98.7944811 115.2517703  63.3377701 100.4200314 112.2542722  75.5598075
  99.5022876 112.4757669  75.4019763 100.8360458 112.3289033  74.7009783
 101.2035362 113.6534138  70.6900756 101.9507181 114.1655535  70.3807878
 101.4726952 113.3318191  71.5505149  99.4762012 116.1492679  67.6727710
  98.5673232 115.8651712  67.7700180  99.5057096 116.5691757  66.8131017
 103.6514199 110.6891254  72.6719545 102.9136956 110.1768641  73.0029787
 103.9040973 110.2491636  71.8602822 103.7525827 103.4667506  73.2661314
 104.0584703 102.6064870  72.9787229 104.4778431 104.0585127  73.0660308
  90.0450183 113.8698193  71.6542912  89.8474583 113.2767554  70.9293979
  89.4896847 113.5650403  72.3718851  98.0246906 113.7621299  73.7737505
  98.0795516 112.8095136  73.6979982  97.2138108 113.9180739  74.2578804
  99.1738100 117.6901423  65.0115788  98.7357530 116.9737281  64.5521426
  99.9148541 117.9177537  64.4500880  95.9639266 112.3798359  71.5327884
  95.1507132 112.6792530  71.9393076  96.4598261 111.9854048  72.2502366
 101.5613478 112.8440184  80.3642778 101.9162866 113.0711657  81.2237244
 102.2085609 113.1758560  79.7420033  95.4553341 109.9516715  77.1489119
  96.0952720 109.8105474  76.4512082  94.6230872 109.6651228  76.7727721
  96.2313645 119.2519145  73.2624111  97.0254244 118.7569465  73.0606686
  95.5205337 118.7237008  72.8991817  92.5396408 113.3962227  69.3383864
  91.6093997 113.3346682  69.5553826  92.6353880 112.8738180  68.5420505
  92.4581958 109.9217040  71.9262106  92.7188775 110.8362373  71.8171266
  93.2799130 109.4541482  72.0758719  93.9306883 111.3354797  79.0960930
  94.6029936 111.1272159  78.4473579  93.1036669 111.1376883  78.6566163
  99.8332455 107.9616738  81.1126591  99.1860370 108.6606687  81.0191068
 100.6033470 108.3952882  81.4802839 100.0096589 115.7997503  79.1723411
 100.9388649 115.9508662  78.9992378  99.5887619 115.8881523  78.3172057
  98.8084921 119.8248167  76.9421949  98.6696007 119.4566952  77.8147887
  98.0199517 120.3395807  76.7705906 100.3590136 119.2029770  74.3310786
 100.0239969 119.1630540  75.2268436  99.8594082 118.5374486  73.8581197
  94.3334380 114.6097400  79.8563367  94.1954178 113.8777639  80.4574907
  95.2439304 114.5206300  79.5747555 103.2949328 116.5485804  64.6047846
 102.6778498 115.8232632  64.5080899 102.8265816 117.3095164  64.2614920
  96.9616681 114.3217359  79.3447047  97.6716299 113.6810551  79.3033666
  96.9185989 114.5730254  80.2673228  95.6745615 111.3082577  81.1642687
  95.1382972 110.8573316  81.8164283  95.0862323 111.4428486  80.4213151
  95.0847874 110.7671228  63.7269150  94.2077340 110.6460029  63.3631397
  95.5605627 109.9757307  63.4748039  86.6050014 115.5548388  73.8210657
  87.2921054 115.2410118  73.2331673  86.4498143 116.4589753  73.5477909
  91.4084736 110.4438585  78.2495681  91.3242925 109.8364254  77.5146091
  90.5867442 110.9347603  78.2505177 101.5808450 108.9292148  73.6165876
 102.0777149 108.1762111  73.2966946 100.8095431 108.9656465  73.0509085
 102.6638231 117.6863836  71.1904300 101.7294509 117.8065298  71.0209004
 102.8414899 116.7836302  70.9264309  98.1643419 111.0709531  73.3437561
  97.7941206 110.5180572  74.0318466  98.6602511 110.4667665  72.7912561
 106.0510782 113.5281155  71.7254334 106.5171234 114.3609146  71.6514636
 106.5018282 113.0626136  72.4299592  95.9932617 121.5307026  80.4392579
  96.6942077 122.1643509  80.5921973  95.5227732 121.8721758  79.6788218
 104.0227445 105.8961742  75.7645235 103.1090524 106.1265969  75.9327442
 104.4520546 105.9800186  76.6159267 103.7933903 114.0851634  78.2645129
 103.1405353 114.3327541  77.6097582 104.1714283 113.2715772  77.9307606
  99.8421476 114.8271445  84.7511166  99.1662113 114.7265574  85.4213541
 100.6649110 114.6710659  85.2147163  91.5900335 121.0643381  77.3723681
  92.1753772 120.3187069  77.5051586  91.3925174 121.3747338  78.2560345
  94.4438990 124.0994629  72.3886124  93.7749366 124.5840756  71.9050164
  94.3051860 124.3463849  73.3029502  86.1817990 113.6348982  76.0928125
  86.2202089 113.1012572  76.8865243  85.6758283 113.1084187  75.4739102
  93.5608752 108.4813522  79.5890667  93.6250079 109.3428353  79.1768065
  93.4975873 107.8687524  78.8563025  93.0361025 110.5536655  83.2363701
  93.6633064 110.1713732  83.8501225  92.1788944 110.3350857  83.6019394
  89.8126568 112.3613084  69.1682056  90.1080009 111.4523762  69.1149110
  88.9114603 112.3400823  68.8463058  93.3420815 110.4369080  75.1509605
  92.6207400 111.0505048  75.0117078  94.1314070 110.9726845  75.0726250
  96.1447128 107.7723507  81.4250256  96.6681530 108.0185803  82.1876566
  95.9259461 108.6043542  81.0053394  91.5414409 110.0427181  69.2921381
  91.2127115 109.1624560  69.1096487  91.8953780 109.9874850  70.1797770
  94.6556232 110.3300151  69.6596859  94.9952305 110.8586072  68.9375467
  95.1028353 110.6680557  70.4355425  97.3499673 108.7137202  79.1099927
  97.0096493 107.9145015  79.5120607  96.6438679 109.0138913  78.5376760
  98.0016145 105.7986514  77.5627250  98.8242214 105.3246992  77.4406140
  98.2454208 106.5776998  78.0625936  96.6424379 108.8274773  67.8590152
  97.3632742 109.2056026  67.3553868  96.0189684 109.5463650  67.9625129
 100.7855502 109.5319922  68.7948484 101.0019117 110.4144560  68.4937312
 100.3049569 109.1406135  68.0654126  95.5254724 112.4905635  75.3719228
  95.3799304 112.8045938  76.2643510  95.0479927 113.1090535  74.8190127
  97.3851107 109.4808183  75.4200118  97.3712675 108.5849276  75.0832416
  98.1023535 109.4878847  76.0538404  99.2377237 109.9145523  77.4653245
  98.9795015 110.8362594  77.4637576  98.7062278 109.5175958  78.1553710
  90.0000386 115.0310979  78.3106890  89.4553854 115.8070787  78.4427164
  90.8779736 115.3781784  78.1526011  96.7888003 108.3622563  70.6887688
  96.9103914 107.4339209  70.8878576  96.4990045 108.3761249  69.7766004
  99.6579193 106.0477474  73.8254408  99.6800890 106.1116807  72.8706388
 100.0747252 105.2081982  74.0194914  90.7866408 114.1580876  81.2037046
  90.0448144 114.3063511  81.7901677  90.4659152 114.4189141  80.3403796
  91.2323021 122.0446304  73.2347441  92.0581041 121.7450076  72.8546085
  90.8817073 121.2753927  73.6837230  96.2004555 121.3972773  75.3045115
  95.5784564 120.7343478  75.0047343  96.8709421 121.4233904  74.6218762
  89.4331626 119.9632631  74.1936375  88.5963535 119.5354805  74.0120376
  89.4055272 120.1565074  75.1307166  96.2729082 109.8754561  84.8977621
  96.3217238 110.7516683  84.5155390  96.8151596 109.3331954  84.3249264
  95.7618061 119.9476696  68.7803575  95.9106182 120.6312160  68.1270248
  96.5684505 119.9281786  69.2953031 104.1685565 113.2519078  82.8070793
 105.0695428 113.1125543  82.5154791 104.2433540 113.4173533  83.7468971
  98.5028370 110.6285933  81.6523979  97.6331680 110.9219499  81.3806568
  98.7387851 111.2126378  82.3731243 106.6287188 114.8117706  80.2033566
 107.1041309 115.0045353  79.3952417 105.7052753 114.8676892  79.9576950
  93.5170694 115.9741874  69.7864644  93.2716736 115.0704204  69.9844854
  93.6866609 115.9759024  68.8444122 101.2067404 106.8465550  79.1689400
 101.7249348 107.5826577  78.8435888 100.8522537 107.1529543  80.0036159
  92.7866342 111.7070231  67.2850806  92.0935587 111.7814586  66.6290842
  92.5418094 110.9430575  67.8072323 101.4579998 103.2665832  74.6890296
 101.7381752 102.5989022  75.3150723 102.2430605 103.4594928  74.1764960
 105.3288857 111.6883466  78.4361871 106.2806280 111.7881564  78.4574096
 105.1592307 110.8961735  78.9459956 103.3503236 108.7739050  78.6221272
 102.7553168 109.0544062  77.9267761 103.0652933 109.2632951  79.3938014
  99.6460265 113.7785639  63.5931375 100.5919370 113.6491847  63.6619793
  99.2674510 113.0400301  64.0700803 107.9571423 111.7000630  77.5962454
 107.4410472 110.9159086  77.4092383 108.8411372 111.3719346  77.7608974
 105.6182150 105.4441645  73.5558267 105.4206971 105.1356733  74.4401599
 106.2281856 106.1703284  73.6856197  99.5298958 117.8303385  85.0532032
 100.4501967 118.0081984  85.2472079  99.4948541 116.8859431  84.9011731
  97.8303183 111.7035615  63.5286260  96.9234638 111.4068728  63.6048974
  98.1079164 111.4065434  62.6620547  88.7481123 113.0241979  73.9785307
  88.4283907 112.1707287  73.6859681  88.2014551 113.2390557  74.7343274
  92.5261031 115.7404420  77.6954813  92.7447040 116.6721528  77.7142847
  92.9386804 115.3812394  78.4809617  99.4465248 106.2472505  69.6830502
  98.6365977 105.9019590  70.0585748 100.1349665 105.9380049  70.2718113
 101.3755797 105.3250552  71.3054798 101.9286835 105.7446005  71.9644821
 101.6125883 104.3986300  71.3477754  97.3988896 111.3137626  87.0857562
  97.2985623 112.2631983  87.0169653  97.1810438 110.9855865  86.2133632
  96.6001967 108.5622551  63.6698240  97.4621131 108.8877449  63.9294057
  96.7852311 107.7754047  63.1571305  88.6169383 116.6444890  75.9478428
  87.9232854 116.2298843  75.4348383  89.3642374 116.6865427  75.3511847
 104.7534604 107.4351077  70.8133463 104.1733273 108.0935881  70.4311515
 104.4870536 106.6128422  70.4020880 103.2038170 106.8356135  73.0154783
 103.7037948 106.9472669  72.2069102 103.8473778 106.5317188  73.6555591
  97.2620166 114.7434764  85.9022624  96.7787248 115.5435125  86.1086513
  97.3481105 114.7542709  84.9490068  90.5306126 116.5763144  73.8244443
  90.5076814 116.6750831  72.8726326  90.8406762 117.4228295  74.1461609
  93.1893503 118.6339299  77.9391058  94.1436757 118.6023242  77.8720989
  92.9906027 118.1729923  78.7541284  93.7792886 117.2040415  80.5061855
  94.5985775 117.6984494  80.5296693  94.0529693 116.2872383  80.4779423
 103.5359482 109.5951168  69.8689811 102.6485337 109.8800818  69.6510006
 103.9513471 109.4344931  69.0217088 106.8874018 109.6197689  73.5844150
 107.6634408 110.1094141  73.8568767 106.1622152 110.0455743  74.0416020
 109.3246577 110.3325308  74.6418091 109.9191067 110.0921044  73.9311399
 109.3973160 109.6132438  75.2691627  91.5443732 124.1758919  74.9561256
  91.4098200 123.4159320  74.3899254  91.1275794 124.8999819  74.4890044
 103.5100506 115.1105703  70.0840101 103.4535707 115.5674255  69.2447733
 104.0628848 114.3496388  69.9062944 107.3205311 110.8995435  70.9090221
 107.0642246 110.4992071  71.7398428 106.6958179 111.6139229  70.7840360
 104.2435285 116.3010485  67.3792630 104.1884089 116.1354756  66.4381074
 103.6181340 117.0086518  67.5354820  89.0327800 111.5378549  81.2054052
  89.6786663 111.0277503  81.6941278  88.8244951 112.2747231  81.7797478
  97.5531410 105.8018594  66.9577949  97.5410080 106.7460434  67.1146219
  98.4454832 105.6188739  66.6637410 101.3683530 102.3961370  71.2123885
 100.6015926 101.8419857  71.3580568 101.7794235 102.4683239  72.0738037
  93.3725291 108.6846166  85.3029067  94.2356752 108.3282971  85.5132391
  92.7990701 108.3460061  85.9904471  37.3417388   0.0166721  62.8336774
  37.9795798  -0.1026531  62.1300114  37.2238230   0.9647565  62.8924726
  34.1507094  -0.0305851  62.7698299  33.8125605  -0.1464786  61.8818834
  35.0196862  -0.4314685  62.7499305  30.0093910   1.8229626  58.7595190
  29.4458775   1.7319563  57.9911478  29.8946305   1.0029530  59.2397682
  34.6326877   1.1229001  68.7284504  34.6215518   0.7281799  67.8565008
  34.7947516   0.3895074  69.3218276  27.5558341   3.3180818  61.5979410
  28.3479633   2.9771642  61.1825710  27.7954992   3.4275793  62.5181564
  35.5893468   5.4900594  54.0709655  34.9381448   6.0754674  53.6843669
  36.3837831   6.0206789  54.1304692  29.5149095   2.5789731  54.4696789
  30.2879971   2.0318718  54.3309665  29.8674494   3.4433980  54.6811251
  31.3534138   3.9066113  67.6763688  31.0624004   4.8111744  67.5610355
  31.9891122   3.9482641  68.3907758  32.2790345   1.2842962  64.2665048
  32.8753917   1.0598984  63.5522011  32.3365316   0.5427707  64.8690496
  31.8515373  -1.2617603  52.1015239  32.1040894  -1.7836082  51.3398702
  30.9139932  -1.4251458  52.2041923  36.8958656  -2.2581825  59.9089982
  37.6821745  -2.6762402  59.5580399  37.1597360  -1.3535733  60.0771631
  37.0668733   3.1791026  54.6078639  36.4314566   3.2525652  55.3199544
  36.7366140   3.7684624  53.9297718  42.2967083  -2.3206592  60.8122961
  43.0292255  -2.8907375  61.0460790  41.5406439  -2.7084991  61.2529466
  31.5711662   0.6410503  54.3039614  31.4547920  -0.0344594  54.9720698
  31.6813922   0.1542877  53.4871767  33.9143203   0.1020650  58.0086303
  33.5501410  -0.4248729  58.7199225  34.7710319  -0.2880881  57.8352789
  39.8192504  -8.6085017  65.2717569  39.4875828  -7.7389606  65.0478784
  39.2238117  -8.9248733  65.9511600  33.5548690  -4.8689450  53.0047652
  33.7223092  -4.0009214  53.3718123  33.3645859  -4.7062169  52.0808941
  36.3124023   3.5927529  64.6713482  36.0124746   4.4952567  64.5629289
  35.9675083   3.3259712  65.5234635  29.7636505   0.0441325  60.7050187
  28.8387001  -0.0882461  60.9127878  30.0120918   0.8235545  61.2020129
  39.7121167  -3.8889931  62.3510919  38.8038044  -3.9574523  62.0569680
  39.6608763  -3.4117986  63.1792745  33.5337911  -2.4131793  53.9894319
  33.4137536  -1.9674742  54.8279799  32.8390499  -2.0646475  53.4307857
  27.1245316  -0.3125401  61.5393976  27.2537697  -0.0590922  62.4533387
  26.4442767   0.2802307  61.2198631  31.2944803  10.3571849  57.6384450
  31.2168833  11.3079674  57.7172930  30.6906446  10.0117721  58.2959376
  33.7862033  -2.4700286  70.2945817  33.0095367  -1.9106366  70.2848681
  34.4252596  -1.9843503  70.8160687  41.5782813  -5.6873493  64.1288793
  40.9357193  -5.3940960  63.4828588  41.0737742  -5.8020573  64.9341990
  39.2322977  -1.9410320  54.8174653  40.1440833  -1.7082933  54.6422350
  38.7232624  -1.3573275  54.2549731  32.0408405   0.3385168  69.8563784
  32.7823089   0.8770212  69.5798607  31.3345390   0.9651456  70.0135336
  37.5163745   2.4814308  68.4535945  37.9247101   2.0396719  67.7090578
  36.7941006   1.9066936  68.7070138  33.8694815  -2.5813085  65.8269502
  34.7156010  -2.1573672  65.9704151  33.8093452  -3.2379461  66.5208065
  37.8392559   3.0415499  62.2088234  37.2101422   3.2061213  61.5064302
  37.4518221   3.4557108  62.9799198  41.7181791   3.9769937  59.5632598
  41.0332829   4.3568838  59.0129631  41.8025640   4.5865263  60.2964546
  37.0194260  -4.9208717  67.4850676  36.7755192  -4.1666656  66.9484952
  37.2954190  -4.5423369  68.3197923  38.9732723   1.6229896  66.1627941
  39.1849618   2.2661656  65.4862323  38.9262471   0.7892212  65.6949872
  36.5758952  -5.7652284  63.0664514  35.7143431  -5.4671030  63.3581251
  36.6021386  -5.5481885  62.1345546  33.3920521   2.7789907  59.4738319
  33.8558867   3.0577610  58.6842942  33.1277319   1.8773351  59.2911410
  30.2844602   2.3261388  62.4118082  30.8545959   2.7548657  61.7735567
  30.8752714   2.0443973  63.1102268  32.3289407  -1.0986941  56.2827884
  33.0313450  -0.6465897  56.7501811  31.9970036  -1.7403122  56.9107777
  30.7769769  -2.5075184  70.6579094  30.1468429  -1.8258903  70.8914491
  30.6705857  -2.6192103  69.7132232  40.0878551   4.5001851  64.3350299
  40.9095994   4.0982038  64.0532980  40.0840954   4.3970085  65.2866415
  33.8535154   4.0485894  66.4911009  33.9179587   4.5106302  67.3269181
  33.1446078   3.4183259  66.6193319  48.1784544   0.8440600  60.6835270
  47.4248252   0.2747998  60.5279275  48.3132085   0.8103264  61.6305905
  33.5683172   5.7154002  56.3589990  33.4328847   6.5605538  56.7874837
  34.1092984   5.9173279  55.5955923  27.0212569   3.2329440  56.9317915
  27.5337090   4.0272690  57.0823479  27.6735282   2.5355730  56.8651516
  28.8307454   6.3495196  59.0140668  29.0074082   7.2713161  58.8261652
  29.6264287   6.0353615  59.4435048  35.1951648   6.3377568  70.4890332
  34.7515502   5.5513947  70.1711236  35.8568862   6.5256719  69.8234222
  29.9538769   7.8673370  65.0151010  30.5046194   7.7390433  64.2428004
  29.1150245   8.1668259  64.6645903  37.2932886   6.6180368  68.5171733
  37.2751362   7.4389249  68.0252002  38.2152806   6.4934444  68.7421874
  33.7505940   4.1324498  69.3595241  34.2834277   3.3712786  69.1294549
  33.2220021   3.8398150  70.1019396  36.8825918  -0.7706825  53.3961318
  36.3672542  -0.0002221  53.6349706  36.6103227  -1.4441689  54.0194380
  41.8560192   1.9825529  55.3314492  41.0789635   1.6436689  54.8869654
  42.5351673   1.9878153  54.6569457  36.6712221  -2.8979733  55.2221099
  36.3662357  -2.5833584  56.0731243  37.6242663  -2.8198313  55.2648432
  35.1158653   3.2610490  56.8714053  34.5880015   2.5263250  56.5587291
  34.6146156   4.0385167  56.6254022  40.0951499   1.4559511  61.9881100
  39.4375174   2.1458772  62.0761228  40.8991898   1.8455943  62.3315086
  38.9056958  -0.1896117  60.0385041  39.4188840   0.4433875  60.5406751
  39.5558182  -0.7894921  59.6728401  33.2611253   1.0790701  49.8749026
  32.3538315   0.8479954  50.0740175  33.7582285   0.2828320  50.0623008
  36.1679332   9.7888208  52.7945713  35.4941031  10.0919904  53.4030670
  36.5545154  10.5917288  52.4451170  35.3837789  -2.7146661  62.2843382
  34.4660350  -2.4931714  62.1265070  35.7997932  -2.6400351  61.4255089
  36.1672837  -1.3155245  57.4146062  36.9144655  -0.8033848  57.1053184
  36.4364426  -1.6371193  58.2750456  34.4399487   1.1803295  54.3973016
  33.5310706   0.8962328  54.4945486  34.4694571   1.6002374  53.5376323
  39.6718754   4.7909885  58.1664184  39.2181081   3.9500795  58.2229374
  39.0412721   5.4271283  58.5038964  38.6151674  -4.2798129  59.3964851
  37.8774430  -4.7920743  59.7275094  38.8678447  -4.7197747  58.5848128
  38.1151693   6.6286382  59.1014002  38.4074668   7.1891439  58.3826368
  38.6250314   6.9214943  59.8567161  32.9884381  -1.2068084  60.4982812
  33.0432991  -2.1594248  60.4225288  32.1775583  -1.0508645  60.9824110
  34.1375575   2.7212039  51.7361095  33.6995004   2.0047898  51.2766732
  34.8786015   2.9488154  51.1746186  30.9276741  -2.5891024  58.2573191
  30.1144606  -2.2896854  58.6638383  31.4235735  -2.9835336  58.9747673
  33.0785319   7.4066733  60.1907455  33.0361497   7.6327579  59.2615987
  33.9948017   7.1730107  60.3393257  36.5250952  -2.1249200  67.0888085
  36.8800340  -1.8977727  67.9482550  37.1723084  -1.7930823  66.4665340
  42.2548689   0.9969236  57.7937414  42.1166588   1.1870832  56.8658603
  41.8984908   1.7588619  58.2505465  42.2818069   3.0645763  62.8048685
  42.7154576   2.9721052  63.6531739  42.9949650   3.0403264  62.1668701
  31.1951119   4.2829762  59.9869418  31.9891718   3.7880082  59.7851993
  30.4842812   3.7547625  59.6237124  36.0145964   6.6647857  64.3381786
  36.0682986   7.2338794  65.1059502  35.1460745   6.8349742  63.9735823
  43.1433618   3.1069464  65.3381571  43.3369509   4.0115274  65.5840845
  43.0434237   2.6476883  66.1720156  38.2048727   3.2576206  70.9122451
  38.0534234   3.0286758  69.9952535  38.1953407   4.2146808  70.9253796
  34.9734064   0.8308119  65.8968718  35.9026124   0.9819279  65.7237685
  34.5525094   0.9192140  65.0417364  33.7722395   4.8558784  63.6667255
  33.6333481   4.4877568  64.5393193  32.9836992   5.3706423  63.4951213
  34.3670547   9.9567880  55.0092792  34.5422303   9.4855923  55.8238414
  33.6803335  10.5833646  55.2374052  35.3227610   4.2340386  61.0556093
  34.9877443   4.1941156  61.9513743  34.8231556   3.5685102  60.5826503
  29.2971854  -0.3591984  66.5808674  29.1591652  -1.0911745  67.1820213
  30.2076778  -0.4483084  66.2992862  38.2586802   1.5796421  51.3293153
  37.6415973   0.8543249  51.2326205  37.7903291   2.3405781  50.9860227
  31.9254155  -0.6472024  66.0692354  32.6353774  -1.2878832  66.0278972
  31.8823463  -0.3959129  66.9918535  39.9140934   6.2895329  68.9898933
  39.8553480   5.6054549  68.3229516  40.3160452   7.0314319  68.5379559
  28.9331633  13.1057243  61.7832652  29.1728231  13.7375767  62.4611670
  28.0900829  12.7545283  62.0698011  39.9158341   4.2534913  67.2212913
  39.0285120   3.9160835  67.3439312  40.4856892   3.5217944  67.4581678
  33.4459494   8.9136365  64.1874156  33.3729666   9.7191337  64.6993460
  33.0036888   9.1128331  63.3622177  33.2349274   8.1508135  57.6976977
  32.4516796   8.6929816  57.7915202  33.9342019   8.6682115  58.0971219
  36.5445924  -6.0397235  60.3411183  37.0414624  -6.7927273  60.0212253
  35.7732906  -6.0032919  59.7754392  44.3975682  -0.3356870  61.9829474
  44.3865558   0.5467846  61.6123407  43.5293061  -0.6885319  61.7884011
  35.9058178   8.8123199  66.3432315  36.6186150   9.4470664  66.2708216
  35.4148207   8.9087065  65.5272316  37.6275705   2.7174452  57.9149606
  36.6931984   2.8375914  57.7454311  37.8052373   1.8146919  57.6509616
  33.1280893  -3.8979852  60.0682867  32.7578680  -4.4508812  60.7563773
  33.6239985  -4.5021719  59.5157867  41.0148256  -1.4408229  58.4499640
  41.4808708  -0.6080237  58.3759943  41.4655757  -1.9063247  59.1544899
  30.9570091   6.5617643  67.1637885  31.6579551   7.1954126  67.3167280
  30.4865206   6.9032374  66.4033525  39.0824487   4.9035593  55.4485792
  39.3584331   4.7892187  56.3579666  38.2128986   4.5053077  55.4097965
  38.7571377  -0.8837750  64.9890436  38.1042828  -0.6361842  64.3342888
  39.1351757  -1.6973612  64.6552913  35.7178551   9.1521943  59.0918606
  35.9000946   8.3343599  59.5546358  36.5411537   9.3689636  58.6543496
  36.0520717   8.0790129  56.3533654  36.5808483   7.5682583  55.7403817
  36.3148936   7.7632659  57.2179187  34.8058950  -0.1417939  71.4756473
  34.1299588  -0.2423809  72.1458848  35.6286584  -0.2978725  71.9392470
  26.5537810   6.0953998  64.0968988  27.1391246   5.3497686  64.2296892
  26.3562648   6.4057955  64.9805652  29.4076465   9.1305245  59.1131430
  28.7386840   9.6151373  58.6295470  29.2689334   9.3774466  60.0274809
  33.5481733  11.1648989  65.7114089  34.1000041  11.3280610  66.4763174
  33.8887927  11.7553427  65.0394114  38.3992608   5.9910246  71.5662743
  38.9432512   6.6040205  71.0717698  37.8179453   6.5489825  72.0829756
  36.6850121   9.1130964  62.6977771  36.5601260   8.3120704  62.1888716
  37.3429212   9.6077158  62.2091741  38.7485029   6.9139984  64.3257321
  37.8015365   6.7945336  64.2535648  39.0967802   6.0262482  64.4083582
  35.7531462   6.7092701  60.5261673  35.6056425   5.7809408  60.7069243
  36.5784956   6.7312791  60.0418748  39.3565584   7.5321259  61.6126546
  40.2812132   7.3264121  61.4750997  39.1880888   7.2837661  62.5215887
  35.7492977  -5.4369462  55.5193790  35.9656591  -4.5544824  55.2182619
  35.2687044  -5.8283248  54.7899432  30.4892198  -2.4783749  62.0964535
  30.3436779  -2.1643445  62.9888817  30.0117402  -1.8598848  61.5435434
  39.1460900   8.0506927  56.9688637  39.3197778   7.4853349  56.2162490
  39.6389792   8.8507822  56.7868127  45.0000292   0.8143350  58.5878937
  45.4431438   0.0650675  58.1898060  44.1226802   0.8053486  58.2052669
  40.1336073   7.3673691  54.0685536  40.8286977   7.9880384  54.2872850
  40.4759223   6.5169042  54.3437914  42.0327496   4.8173397  55.5972866
  42.5578820   5.1560669  54.8722187  41.9449849   3.8820412  55.4136001
  33.6947545   8.7307470  67.7262743  34.0034671   8.4856617  68.5985443
  34.4923027   8.9354109  67.2381613  33.7168157  10.8845380  59.9568120
  33.2773147  10.3921759  60.6500976  34.4676274  10.3418348  59.7160195
  26.1960496   7.0756921  59.9592748  27.0218516   6.7760693  59.5791391
  25.8454548   6.3064543  60.4082536  31.1642029   6.4283389  62.0290421
  30.5422038   5.7654094  61.7292649  31.8346896   6.4544521  61.3464069
  24.3969101   4.9943247  60.9181681  23.5601009   4.5665422  60.7365683
  24.3692746   5.1875691  61.8552473  41.7221402   5.4506300  70.9024064
  40.9316946   5.4330439  70.3628564  41.4854757   5.9894594  71.6573101
  41.8419277   2.2998767  68.2156793  41.8917282   2.1348774  69.1572316
  41.7333200   1.4326026  67.8254674  30.7255536   4.9787312  55.5048882
  30.8743656   5.6622777  54.8515555  31.5321979   4.9592402  56.0198338
  39.1323040  -1.7170305  69.5316100  40.0332902  -1.8563840  69.2400098
  39.2071014  -1.5515850  70.4714277  33.4665845  -4.3403450  68.3769286
  32.5969154  -4.0469884  68.1051875  33.7025325  -3.7563005  69.0976550
  43.3437474   4.7195708  68.4598815  43.0522282   5.0825689  69.2962275
  42.7309605   4.0062717  68.2812147  44.5433156   2.2848588  60.9801385
  45.3780048   2.7238392  61.1438945  44.6792285   1.8087241  60.1609631
  41.5924662  -0.1571677  66.9278873  42.0678784   0.0355969  66.1197724
  40.6690228  -0.1012491  66.6822256  28.4808169   1.0052490  56.5109951
  28.2354211   0.1014820  56.7090161  28.6504083   1.0069641  55.5689429
  34.2250941   7.4735443  52.9760629  33.6524908   8.0925630  52.5231101
  34.7983735   8.0234805  53.5100551  40.2926331  -3.2805917  65.1607178
  41.2443754  -3.1807819  65.1819402  40.1229782  -4.0727648  65.6705262
  38.3140711  -6.1950334  65.3466579  37.7190643  -5.9145321  64.6513068
  38.0290407  -5.7056433  66.1183320  37.4448201   7.7572593  54.1069212
  38.3778874   7.6918155  54.3102087  37.3571414   8.5928860  53.6483744
  40.0736218   7.0738463  51.0673159  39.9949849   6.7398327  51.9608917
  40.8945885   7.5660231  51.0664632  42.7714409  -0.0599797  64.2749478
  42.7390729  -0.9983797  64.4609162  43.3815033   0.0184239  63.5415303
  34.6097740  -1.1903744  50.3176682  35.5556845  -1.3197536  50.3865100
  34.2311985  -1.9289082  50.7946110  42.9208897  -3.2688754  64.3207761
  42.4047946  -4.0530297  64.1337690  43.8048846  -3.5970037  64.4854280
  40.5819624  -9.5247738  60.2803574  40.3844446  -9.8332650  61.1646906
  41.1919330  -8.7986099  60.4101503  48.5890959   1.0016210  63.4155515
  49.3194347   0.7401498  63.9763218  47.9797904   0.2644931  63.4557583
  46.6706256  -0.8575928  64.0129966  45.9439420  -0.9919963  63.4046457
  46.2553543  -0.5499099  64.8186684  34.4936432   2.8614002  71.7777339
  35.4139442   3.0392601  71.9717385  34.4586015   1.9170047  71.6257038
  32.7940657  -3.2653768  50.2531567  31.8872112  -3.5620655  50.3294281
  33.0716638  -3.5623950  49.3865853  27.4898505   0.7715036  64.4200120
  27.7084515   1.7032144  64.4388154  27.9024279   0.4123011  65.2054924
  32.3626370  -3.6551758  73.8102869  32.2623097  -2.7057401  73.7414960
  32.1447912  -3.9833519  72.9378939  39.7172078  -7.5338306  57.5378769
  39.1370747  -6.8753502  57.1556822  39.4508011  -8.3560962  57.1266187
  38.1675644  -8.1333249  59.7400090  38.6675423  -8.0216714  58.9314408
  38.8111252  -8.4372196  60.3800898  32.2257640  -0.2254619  72.6267931
  31.7424722   0.5745741  72.8331820  32.3118579  -0.2146674  71.6735375
  25.4943600   1.6073761  60.5489750  25.4714288   1.7061448  59.5971633
  25.8044236   2.4538912  60.8706916  28.1530978   3.6649916  64.6636364
  29.1074231   3.6333858  64.5966296  27.9543501   3.2040539  65.4786590
  28.7430360   2.2351032  67.2307162  29.5623249   2.7295110  67.2541999
  29.0167168   1.3183000  67.2024729  38.4996956  -5.3738216  56.5935118
  37.6122811  -5.0888565  56.3755312  38.9150945  -5.5344453  55.7462394
  41.8511492  -5.3491695  60.3089457  42.6271882  -4.8595242  60.5814074
  41.1259626  -4.9233641  60.7661326  44.2884051  -4.6364076  61.3663397
  44.8828542  -4.8768340  60.6556706  44.3610635  -5.3556945  61.9936934
  26.5081207   9.2069535  61.6806562  26.3735674   8.4469936  61.1144560
  26.0913269   9.9310435  61.2135351  37.6440170   4.3906459  50.6883137
  38.3476020   4.5956461  51.3040793  36.9202818   4.9583221  50.9532221
  38.4737980   0.1416320  56.8085408  38.4173181   0.5984871  55.9693040
  39.0266322  -0.6192995  56.6308250  42.2842786  -4.0693948  57.6335527
  42.0279720  -4.4697312  58.4643735  41.6595654  -3.3550154  57.5085666
  46.5955124  -1.3297875  60.1406819  46.0354682  -1.2604686  60.9138381
  45.9898627  -1.5056890  59.4206315  29.6650332  10.1038852  61.8925005
  29.5482717  11.0484285  61.7903695  28.8442779   9.8012414  62.2810804
  39.5526867   4.8288988  52.7381598  40.3872471   4.3970186  52.5559072
  39.3911210   4.6571002  53.6658492  39.2072759   1.3321101  54.1037937
  39.1521563   1.1665373  53.1626381  38.5818814   2.0397134  54.2600127
  36.5218666   3.6370013  73.4291500  37.3909826   3.8110665  73.0678135
  36.0425418   4.4564430  73.3067229  30.6904847  10.7567114  65.1080933
  31.5932093  10.7890724  65.4247428  30.4642217   9.8267565  65.1227269
  32.4458449   9.5098101  61.7691012  31.4954080   9.5099962  61.6555384
  32.7490935   8.7630835  61.2527047  48.1811142  15.3458639  62.8336774
  48.8189552  15.2265386  62.1300114  48.0631985  16.2939483  62.8924726
  44.9900848  15.2986067  62.7698299  44.6519360  15.1827132  61.8818834
  45.8590617  14.8977232  62.7499305  40.8487664  17.1521544  58.7595190
  40.2852529  17.0611481  57.9911478  40.7340059  16.3321448  59.2397682
  45.4720631  16.4520919  68.7284504  45.4609272  16.0573717  67.8565008
  45.6341271  15.7186992  69.3218276  38.3952096  18.6472735  61.5979410
  39.1873388  18.3063560  61.1825710  38.6348746  18.7567710  62.5181564
  46.4287223  20.8192511  54.0709655  45.7775203  21.4046592  53.6843669
  47.2231586  21.3498706  54.1304692  40.3542850  17.9081648  54.4696789
  41.1273726  17.3610636  54.3309665  40.7068249  18.7725898  54.6811251
  42.1927892  19.2358031  67.6763688  41.9017758  20.1403662  67.5610355
  42.8284877  19.2774558  68.3907758  43.1184099  16.6134879  64.2665048
  43.7147672  16.3890902  63.5522011  43.1759071  15.8719625  64.8690496
  42.6909128  14.0674315  52.1015239  42.9434648  13.5455836  51.3398702
  41.7533687  13.9040460  52.2041923  47.7352411  13.0710093  59.9089982
  48.5215500  12.6529516  59.5580399  47.9991115  13.9756185  60.0771631
  47.9062488  18.5082943  54.6078639  47.2708321  18.5817570  55.3199544
  47.5759894  19.0976542  53.9297718  53.1360838  13.0085326  60.8122961
  53.8686010  12.4384543  61.0460790  52.3800193  12.6206927  61.2529466
  42.4105416  15.9702421  54.3039614  42.2941675  15.2947324  54.9720698
  42.5207676  15.4834794  53.4871767  44.7536957  15.4312568  58.0086303
  44.3895165  14.9043189  58.7199225  45.6104073  15.0411037  57.8352789
  50.6586258   6.7206900  65.2717569  50.3269583   7.5902311  65.0478784
  50.0631871   6.4043184  65.9511600  44.3942444  10.4602467  53.0047652
  44.5616847  11.3282704  53.3718123  44.2039613  10.6229749  52.0808941
  47.1517778  18.9219446  64.6713482  46.8518501  19.8244485  64.5629289
  46.8068837  18.6551629  65.5234635  40.6030259  15.3733243  60.7050187
  39.6780756  15.2409457  60.9127878  40.8514672  16.1527462  61.2020129
  50.5514921  11.4401986  62.3510919  49.6431799  11.3717395  62.0569680
  50.5002517  11.9173931  63.1792745  44.3731665  12.9160125  53.9894319
  44.2531290  13.3617176  54.8279799  43.6784254  13.2645442  53.4307857
  37.9639070  15.0166517  61.5393976  38.0931451  15.2700996  62.4533387
  37.2836521  15.6094225  61.2198631  42.1338557  25.6863767  57.6384450
  42.0562587  26.6371592  57.7172930  41.5300201  25.3409639  58.2959376
  44.6255787  12.8591632  70.2945817  43.8489121  13.4185552  70.2848681
  45.2646350  13.3448415  70.8160687  52.4176568   9.6418425  64.1288793
  51.7750948   9.9350958  63.4828588  51.9131496   9.5271345  64.9341990
  50.0716731  13.3881598  54.8174653  50.9834588  13.6208985  54.6422350
  49.5626378  13.9718642  54.2549731  42.8802159  15.6677085  69.8563784
  43.6216844  16.2062129  69.5798607  42.1739145  16.2943374  70.0135336
  48.3557499  17.8106226  68.4535945  48.7640855  17.3688636  67.7090578
  47.6334761  17.2358853  68.7070138  44.7088569  12.7478833  65.8269502
  45.5549764  13.1718246  65.9704151  44.6487207  12.0912457  66.5208065
  48.6786314  18.3707416  62.2088234  48.0495176  18.5353131  61.5064302
  48.2911976  18.7849026  62.9799198  52.5575546  19.3061854  59.5632598
  51.8726584  19.6860756  59.0129631  52.6419395  19.9157181  60.2964546
  47.8588014  10.4083201  67.4850676  47.6148946  11.1625261  66.9484952
  48.1347945  10.7868549  68.3197923  49.8126477  16.9521813  66.1627941
  50.0243372  17.5953573  65.4862323  49.7656225  16.1184130  65.6949872
  47.4152706   9.5639634  63.0664514  46.5537185   9.8620888  63.3581251
  47.4415141   9.7810033  62.1345546  44.2314276  18.1081825  59.4738319
  44.6952621  18.3869528  58.6842942  43.9671074  17.2065269  59.2911410
  41.1238357  17.6553306  62.4118082  41.6939714  18.0840574  61.7735567
  41.7146469  17.3735891  63.1102268  43.1683162  14.2304977  56.2827884
  43.8707205  14.6826021  56.7501811  42.8363790  13.5888796  56.9107777
  41.6163523  12.8216734  70.6579094  40.9862184  13.5033014  70.8914491
  41.5099611  12.7099815  69.7132232  36.9108496  12.4888530  61.5845018
  36.1207550  12.7446058  61.1085129  37.4019743  13.3036867  61.6897058
  50.9272305  19.8293769  64.3350299  51.7489749  19.4273956  64.0532980
  50.9234708  19.7262003  65.2866415  38.8623241  12.8533109  58.5428495
  38.0654404  12.9651803  59.0611990  38.6348833  13.1919761  57.6769385
  44.6928909  19.3777812  66.4911009  44.7573341  19.8398219  67.3269181
  43.9839832  18.7475177  66.6193319  35.1946199  12.7419020  64.0160009
  35.4454237  13.6266030  64.2817585  35.7305747  12.5623622  63.2435101
  59.0178298  16.1732517  60.6835270  58.2642007  15.6039915  60.5279275
  59.1525839  16.1395182  61.6305905  44.4076926  21.0445920  56.3589990
  44.2722601  21.8897455  56.7874837  44.9486739  21.2465197  55.5955923
  40.8944266   7.1237499  73.0204345  40.5011211   6.5703698  73.6951989
  41.7110406   7.4348078  73.4110862  37.8606324  18.5621358  56.9317915
  38.3730844  19.3564608  57.0823479  38.5129036  17.8647648  56.8651516
  39.6701208  21.6787114  59.0140668  39.8467837  22.6005079  58.8261652
  40.4658042  21.3645533  59.4435048  43.8112227   8.5395378  70.6124601
  44.5521940   9.1402532  70.5329064  44.0430150   7.7973016  70.0542644
  38.9553565  13.7251746  68.8902831  38.8407080  12.8237003  69.1909930
  38.0998083  13.9715442  68.5387648  46.0345403  21.6669486  70.4890332
  45.5909257  20.8805865  70.1711236  46.6962616  21.8548637  69.8234222
  40.7932524  23.1965288  65.0151010  41.3439949  23.0682351  64.2428004
  39.9544000  23.4960177  64.6645903  48.1326641  21.9472286  68.5171733
  48.1145116  22.7681167  68.0252002  49.0546561  21.8226361  68.7421874
  44.5899695  19.4616415  69.3595241  45.1228032  18.7004704  69.1294549
  44.0613776  19.1690067  70.1019396  47.7569390   4.5676481  64.8888883
  47.4133659   5.4578123  64.8127994  48.1248352   4.3778139  64.0258468
  35.8255240  16.8910012  57.7077485  36.6630462  17.3007020  57.4911193
  36.0033508  15.9509454  57.6777679  47.7219673  14.5585093  53.3961318
  47.2066296  15.3289697  53.6349706  47.4496981  13.8850229  54.0194380
  45.3066784   9.4034793  58.4546557  44.4508380   9.0141644  58.2752195
  45.7193735   9.4826754  57.5946342  46.8365930   6.9381137  62.8538116
  46.3330726   6.9011272  62.0405922  47.1296537   7.8473879  62.9134773
  43.0808816   7.0219866  61.8604298  43.9461813   6.8262675  61.5010188
  43.1486325   6.7930218  62.7873655  52.6953947  17.3117447  55.3314492
  51.9183389  16.9728607  54.8869654  53.3745428  17.3170070  54.6569457
  47.5105976  12.4312185  55.2221099  47.2056111  12.7458334  56.0731243
  48.4636418  12.5093604  55.2648432  45.9552408  18.5902408  56.8714053
  45.4273769  17.8555168  56.5587291  45.4539910  19.3677084  56.6254022
  50.9345254  16.7851428  61.9881100  50.2768928  17.4750690  62.0761228
  51.7385653  17.1747860  62.3315086  40.6871135   9.2522074  59.2320665
  41.2614887   9.0297256  58.4993858  41.2742118   9.3210769  59.9849266
  49.7450712  15.1395801  60.0385041  50.2582594  15.7725793  60.5406751
  50.3951936  14.5396997  59.6728401  41.0140722  11.2826535  53.2516550
  40.1778035  11.6201222  53.5725825  40.8745492  11.1475515  52.3143687
  42.9893803   6.1263323  57.9595734  42.3358215   5.8112340  57.3352349
  42.9474277   5.5039064  58.6855557  44.1005008  16.4082618  49.8749026
  43.1932069  16.1771872  50.0740175  44.5976040  15.6120237  50.0623008
  47.0073087  25.1180125  52.7945713  46.3334785  25.4211822  53.4030670
  47.3938909  25.9209206  52.4451170  46.2231543  12.6145257  62.2843382
  45.3054105  12.8360204  62.1265070  46.6391687  12.6891567  61.4255089
  47.0066591  14.0136672  57.4146062  47.7538410  14.5258070  57.1053184
  47.2758181  13.6920725  58.2750456  45.2793241  16.5095213  54.3973016
  44.3704460  16.2254246  54.4945486  45.3088325  16.9294292  53.5376323
  50.5112509  20.1201803  58.1664184  50.0574836  19.2792712  58.2229374
  49.8806475  20.7563201  58.5038964  49.4545428  11.0493789  59.3964851
  48.7168185  10.5371175  59.7275094  49.7072202  10.6094170  58.5848128
  48.9545448  21.9578299  59.1014002  49.2468422  22.5183356  58.3826368
  49.4644068  22.2506860  59.8567161  49.5557055   3.8270041  59.9906621
  49.8615932   2.9667404  59.7032536  50.2809660   4.4187661  59.7905615
  35.8481412  14.2300727  58.3788219  35.6505811  13.6370088  57.6539285
  35.2928076  13.9252937  59.0964157  43.8278135  14.1223834  60.4982812
  43.8826745  13.1697670  60.4225288  43.0169337  14.2783273  60.9824110
  44.9769329  18.0503957  51.7361095  44.5388759  17.3339816  51.2766732
  45.7179770  18.2780072  51.1746186  41.7670495  12.7400893  58.2573191
  40.9538361  13.0395064  58.6638383  42.2629489  12.3456582  58.9747673
  43.9179073  22.7358650  60.1907455  43.8755252  22.9619497  59.2615987
  44.8341772  22.5022025  60.3393257  47.3644707  13.2042718  67.0888085
  47.7194095  13.4314191  67.9482550  48.0116838  13.5361095  66.4665340
  53.0942444  16.3261154  57.7937414  52.9560342  16.5162750  56.8658603
  52.7378663  17.0880537  58.2505465  41.2584570  10.3119249  63.8734426
  41.8983949  10.1708008  63.1757389  40.4262100  10.0253762  63.4973028
  53.1211823  18.3937681  62.8048685  53.5548330  18.3012970  63.6531739
  53.8343404  18.3695181  62.1668701  42.0344874  19.6121679  59.9869418
  42.8285472  19.1171999  59.7851993  41.3236566  19.0839542  59.6237124
  46.8539718  21.9939775  64.3381786  46.9076741  22.5630711  65.1059502
  45.9854500  22.1641660  63.9735823  38.3427637  13.7564761  56.0629171
  37.4125225  13.6949217  56.2799133  38.4385109  13.2340714  55.2665812
  38.2613186  10.2819574  58.6507412  38.5220004  11.1964907  58.5416573
  39.0830359   9.8144016  58.8004025  39.7338112  11.6957331  65.8206237
  40.4061165  11.4874693  65.1718886  38.9067898  11.4979417  65.3811469
  53.9827373  18.4361381  65.3381571  54.1763263  19.3407192  65.5840845
  53.8827991  17.9768800  66.1720156  45.6363684   8.3219272  67.8371898
  44.9891599   9.0209222  67.7436374  46.4064699   8.7555416  68.2048146
  49.0442482  18.5868124  70.9122451  48.8927988  18.3578676  69.9952535
  49.0347161  19.5438726  70.9253796  45.8127818  16.1600037  65.8968718
  46.7419878  16.3111197  65.7237685  45.3918848  16.2484058  65.0417364
  44.6116150  20.1850701  63.6667255  44.4727236  19.8169486  64.5393193
  43.8230746  20.6998341  63.4951213  45.2064302  25.2859798  55.0092792
  45.3816057  24.8147841  55.8238414  44.5197090  25.9125564  55.2374052
  46.1621365  19.5632304  61.0556093  45.8271198  19.5233074  61.9513743
  45.6625311  18.8977020  60.5826503  40.1365609  14.9699934  66.5808674
  39.9985407  14.2380173  67.1820213  41.0470532  14.8808834  66.2992862
  49.0980557  16.9088338  51.3293153  48.4809727  16.1835167  51.2326205
  48.6297045  17.6697699  50.9860227  42.7647910  14.6819893  66.0692354
  43.4747528  14.0413086  66.0278972  42.7217218  14.9332788  66.9918535
  50.7534688  21.6187247  68.9898933  50.6947234  20.9346467  68.3229516
  51.1554207  22.3606237  68.5379559  41.4776844  11.6685111  67.8887993
  40.9414201  11.2175850  68.5409590  40.8893552  11.8031020  67.1458458
  39.7725387  28.4349161  61.7832652  40.0121985  29.0667685  62.4611670
  38.9294584  28.0837201  62.0698011  40.8879103  11.1273763  50.4514457
  40.0108569  11.0062563  50.0876704  41.3636856  10.3359841  50.1993346
  50.7552096  19.5826831  67.2212913  49.8678874  19.2452752  67.3439312
  51.3250647  18.8509862  67.4581678  32.4081243  15.9150922  60.5455964
  33.0952282  15.6012652  59.9576979  32.2529371  16.8192287  60.2723215
  37.2115965  10.8041119  64.9740988  37.1274154  10.1966789  64.2391398
  36.3898671  11.2950137  64.9750484  44.2853249  24.2428283  64.1874156
  44.2123420  25.0483255  64.6993460  43.8430642  24.4420249  63.3622177
  44.0743029  23.4800053  57.6976977  43.2910550  24.0221733  57.7915202
  44.7735774  23.9974033  58.0971219  47.3839679   9.2894682  60.3411183
  47.8808378   8.5364645  60.0212253  46.6126660   9.3258999  59.7754392
  55.2369436  14.9935048  61.9829474  55.2259312  15.8759763  61.6123407
  54.3686816  14.6406599  61.7884011  46.7451932  24.1415117  66.3432315
  47.4579905  24.7762582  66.2708216  46.2541961  24.2378983  65.5272316
  48.4669459  18.0466370  57.9149606  47.5325738  18.1667832  57.7454311
  48.6446128  17.1438836  57.6509616  43.9674647  11.4312065  60.0682867
  43.5972435  10.8783106  60.7563773  44.4633740  10.8270199  59.5157867
  51.8542011  13.8883689  58.4499640  52.3202463  14.7211681  58.3759943
  52.3049511  13.4228671  59.1544899  41.7963846  21.8909561  67.1637885
  42.4973305  22.5246043  67.3167280  41.3258961  22.2324292  66.4033525
  49.9218242  20.2327510  55.4485792  50.1978086  20.1184105  56.3579666
  49.0522741  19.8344995  55.4097965  49.8258673   6.2564276  62.4890542
  48.9121753   6.4868503  62.6572749  50.2551775   6.3402720  63.3404574
  49.5965132  14.4454168  64.9890436  48.9436582  14.6930075  64.3342888
  49.9745512  13.6318306  64.6552913  46.5572306  24.4813861  59.0918606
  46.7394700  23.6635517  59.5546358  47.3805292  24.6981553  58.6543496
  46.8914471  23.4082046  56.3533654  47.4202238  22.8974501  55.7403817
  47.1542691  23.0924576  57.2179187  45.6452705  15.1873979  71.4756473
  44.9693342  15.0868108  72.1458848  46.4680339  15.0313193  71.9392470
  37.3931564  21.4245916  64.0968988  37.9785001  20.6789603  64.2296892
  37.1956403  21.7349872  64.9805652  40.2470219  24.4597163  59.1131430
  39.5780595  24.9443291  58.6295470  40.1083089  24.7066383  60.0274809
  31.9849219  13.9951516  62.8173431  32.0233318  13.4615106  63.6110549
  31.4789512  13.4686721  62.1984408  44.3875488  26.4940906  65.7114089
  44.9393796  26.6572528  66.4763174  44.7281681  27.0845344  65.0394114
  39.3639981   8.8416056  66.3135973  39.4281308   9.7030887  65.9013371
  39.3007101   8.2290058  65.5808332  38.8392254  10.9139189  69.9609008
  39.4664292  10.5316266  70.5746532  37.9820172  10.6953391  70.3264700
  49.2386362  21.3202164  71.5662743  49.7826266  21.9332122  71.0717698
  48.6573207  21.8781742  72.0829756  35.6157796  12.7215618  55.8927363
  35.9111237  11.8126296  55.8394416  34.7145832  12.7003357  55.5708365
  47.5243875  24.4422882  62.6977771  47.3995015  23.6412622  62.1888716
  48.1822966  24.9369075  62.2091741  39.1452043  10.7971614  61.8754911
  38.4238629  11.4107582  61.7362384  39.9345299  11.3329379  61.7971557
  49.5878784  22.2431902  64.3257321  48.6409119  22.1237253  64.2535648
  49.9361557  21.3554400  64.4083582  41.9478357   8.1326041  68.1495563
  42.4712759   8.3788338  68.9121872  41.7290690   8.9646076  67.7298700
  37.3445638  10.4029716  56.0166688  37.0158344   9.5227094  55.8341794
  37.6985009  10.3477384  56.9043077  46.5925217  22.0384618  60.5261673
  46.4450179  21.1101326  60.7069243  47.4178710  22.0604709  60.0418748
  40.4587461  10.6902685  56.3842165  40.7983534  11.2188607  55.6620774
  40.9059582  11.0283091  57.1600732  50.1959339  22.8613177  61.6126546
  51.1205886  22.6556038  61.4750997  50.0274642  22.6129578  62.5215887
  43.1530902   9.0739736  65.8345233  42.8127722   8.2747549  66.2365913
  42.4469908   9.3741447  65.2622067  43.8047374   6.1589049  64.2872556
  44.6273443   5.6849527  64.1651447  44.0485437   6.9379532  64.7871243
  42.4455608   9.1877307  54.5835458  43.1663971   9.5658560  54.0799175
  41.8220912   9.9066184  54.6870436  46.5886731   9.8922456  55.5193790
  46.8050346  10.7747094  55.2182619  46.1080798   9.5008669  54.7899432
  41.3285953  12.8508169  62.0964535  41.1830533  13.1648472  62.9888817
  40.8511156  13.4693069  61.5435434  43.1882335   9.8410717  62.1445425
  43.1743904   8.9451810  61.8077723  43.9054764   9.8481381  62.7783711
  45.0408466  10.2748057  64.1898552  44.7826244  11.1965128  64.1882882
  44.5093506   9.8778492  64.8799016  49.9854655  23.3798844  56.9688637
  50.1591532  22.8145267  56.2162490  50.4783546  24.1799739  56.7868127
  35.8031615  15.3913514  65.0352196  35.2585083  16.1673322  65.1672471
  36.6810965  15.7384318  64.8771318  42.5919231   8.7225097  57.4132995
  42.7135143   7.7941744  57.6123882  42.3021274   8.7363783  56.5011310
  45.4610422   6.4080008  60.5499715  45.4832119   6.4719341  59.5951694
  45.8778481   5.5684517  60.7440221  55.8394046  16.1435267  58.5878937
  56.2825192  15.3942593  58.1898060  54.9620556  16.1345404  58.2052669
  50.9729827  22.6965609  54.0685536  51.6680732  23.3172302  54.2872850
  51.3152977  21.8460960  54.3437914  36.5897637  14.5183410  67.9282353
  35.8479373  14.6666045  68.5146984  36.2690381  14.7791675  67.0649103
  52.8721250  20.1465314  55.5972866  53.3972575  20.4852587  54.8722187
  52.7843603  19.2112330  55.4136001  44.5341299  24.0599388  67.7262743
  44.8428426  23.8148535  68.5985443  45.3316781  24.2646027  67.2381613
  44.5561911  26.2137298  59.9568120  44.1166902  25.7213676  60.6500976
  45.3070028  25.6710265  59.7160195  37.0354250  22.4048839  59.9592748
  37.8612270  22.1052610  59.5791391  36.6848302  21.6356461  60.4082536
  42.0035783  21.7575307  62.0290421  41.3815793  21.0946012  61.7292649
  42.6740650  21.7836439  61.3464069  35.2362855  20.3235165  60.9181681
  34.3994764  19.8957339  60.7365683  35.2086501  20.5167608  61.8552473
  42.0760311  10.2357095  71.6222927  42.1248466  11.1119218  71.2400697
  42.6182825   9.6934488  71.0494571  52.5615157  20.7798218  70.9024064
  51.7710700  20.7622357  70.3628564  52.3248511  21.3186512  71.6573101
  52.6813032  17.6290684  68.2156793  52.7311037  17.4640692  69.1572316
  52.5726955  16.7617943  67.8254674  41.5649290  20.3079230  55.5048882
  41.7137411  20.9914694  54.8515555  42.3715734  20.2884320  56.0198338
  49.9716794  13.6121612  69.5316100  50.8726657  13.4728077  69.2400098
  50.0464768  13.7776067  70.4714277  44.3059599  10.9888467  68.3769286
  43.4362909  11.2822033  68.1051875  44.5419080  11.5728912  69.0976550
  54.1831228  20.0487626  68.4598815  53.8916037  20.4117606  69.2962275
  53.5703360  19.3354634  68.2812147  55.3826911  17.6140506  60.9801385
  56.2173802  18.0530310  61.1438945  55.5186040  17.1379159  60.1609631
  52.4318417  15.1720241  66.9278873  52.9072538  15.3647887  66.1197724
  51.5083982  15.2279426  66.6822256  39.3201923  16.3344408  56.5109951
  39.0747965  15.4306738  56.7090161  39.4897838  16.3361558  55.5689429
  47.0098633   7.2068084  65.8934706  47.5280577   7.9429111  65.5681195
  46.6553766   7.5132077  66.7281466  38.5897571  12.0672765  54.0096112
  37.8966816  12.1417120  53.3536148  38.3449323  11.3033109  54.5317629
  47.2611227   3.6268367  61.4135603  47.5412981   2.9591556  62.0396030
  48.0461834   3.8197462  60.9010267  45.0644696  22.8027361  52.9760629
  44.4918663  23.4217548  52.5231101  45.6377489  23.3526722  53.5100551
  51.1320086  12.0486001  65.1607178  52.0837509  12.1484098  65.1819402
  50.9623536  11.2564269  65.6705262  49.1534465   9.1341584  65.3466579
  48.5584397   9.4146597  64.6513068  48.8684162   9.6235485  66.1183320
  48.2841956  23.0864511  54.1069212  49.2172629  23.0210072  54.3102087
  48.1965168  23.9220778  53.6483744  50.9129972  22.4030381  51.0673159
  50.8343604  22.0690245  51.9608917  51.7339639  22.8952149  51.0664632
  53.6108163  15.2692120  64.2749478  53.5784484  14.3308121  64.4609162
  54.2208787  15.3476157  63.5415303  45.4491494  14.1388173  50.3176682
  46.3950599  14.0094381  50.3865100  45.0705739  13.4002835  50.7946110
  53.7602652  12.0603164  64.3207761  53.2441701  11.2761620  64.1337690
  54.6442600  11.7321880  64.4854280  51.4213379   5.8044179  60.2803574
  51.2238200   5.4959268  61.1646906  52.0313084   6.5305818  60.4101503
  59.4284713  16.3308127  63.4155515  60.1588102  16.0693415  63.9763218
  58.8191659  15.5936849  63.4557583  57.5100010  14.4715990  64.0129966
  56.7833174  14.3371955  63.4046457  57.0947297  14.7792818  64.8186684
  45.3330187  18.1905919  71.7777339  46.2533196  18.3684518  71.9717385
  45.2979770  17.2461965  71.6257038  43.6334411  12.0638150  50.2531567
  42.7265867  11.7671262  50.3294281  43.9110392  11.7667968  49.3865853
  34.5512352  13.3844513  60.7030613  34.2315136  12.5309821  60.4104987
  34.0045780  13.5993091  61.4588581  38.3292259  16.1006954  64.4200120
  38.5478269  17.0324062  64.4388154  38.7418033  15.7414929  65.2054924
  45.2496477   6.6075039  56.4075808  44.4397206   6.2622124  56.7831054
  45.9380894   6.2982583  56.9963420  47.1787025   5.6853086  58.0300105
  47.7318064   6.1048540  58.6890128  47.4157112   4.7588834  58.0723061
  43.2020125  11.6740160  73.8102869  43.1016852  12.6234517  73.7414960
  42.9841667  11.3458399  72.9378939  42.4033196   8.9225085  50.3943546
  43.2652360   9.2479983  50.6539364  42.5883540   8.1356581  49.8816612
  34.4200612  17.0047425  62.6723735  33.7264083  16.5901377  62.1593689
  35.1673603  17.0467961  62.0757154  50.5565833   7.7953611  57.5378769
  49.9764502   8.4538415  57.1556822  50.2901765   6.9730956  57.1266187
  49.0069399   7.1958669  59.7400090  49.5069177   7.3075204  58.9314408
  49.6505007   6.8919722  60.3800898  43.0651395  15.1037299  72.6267931
  42.5818476  15.9037659  72.8331820  43.1512334  15.1145244  71.6735375
  36.3337354  16.9365678  60.5489750  36.3108042  17.0353366  59.5971633
  36.6437991  17.7830829  60.8706916  38.9924732  18.9941833  64.6636364
  39.9467986  18.9625776  64.5966296  38.7937256  18.5332457  65.4786590
  39.5824114  17.5642949  67.2307162  40.4017003  18.0587028  67.2541999
  39.8560922  16.6474918  67.2024729  49.3390711   9.9553702  56.5935118
  48.4516566  10.2403352  56.3755312  49.7544700   9.7947465  55.7462394
  52.6905247   9.9800223  60.3089457  53.4665637  10.4696675  60.5814074
  51.9653381  10.4058277  60.7661326  55.1277805  10.6927842  61.3663397
  55.7222296  10.4523578  60.6556706  55.2004389   9.9734973  61.9936934
  37.3474961  24.5361453  61.6806562  37.2129429  23.7761854  61.1144560
  36.9307023  25.2602353  61.2135351  48.4833924  19.7198376  50.6883137
  49.1869774  19.9248379  51.3040793  47.7596573  20.2875138  50.9532221
  49.3131734  15.4708238  56.8085408  49.2566936  15.9276789  55.9693040
  49.8660077  14.7098922  56.6308250  53.1236540  11.2597970  57.6335527
  52.8673474  10.8594605  58.4643735  52.4989408  11.9741763  57.5085666
  57.4348878  13.9994043  60.1406819  56.8748436  14.0687232  60.9138381
  56.8292381  13.8235027  59.4206315  40.5044087  25.4330770  61.8925005
  40.3876471  26.3776202  61.7903695  39.6836533  25.1304331  62.2810804
  50.3920621  20.1580906  52.7381598  51.2266225  19.7262104  52.5559072
  50.2304964  19.9862919  53.6658492  50.0466514  16.6613019  54.1037937
  49.9915317  16.4957290  53.1626381  49.4212569  17.3689052  54.2600127
  34.8359029  11.8981083  67.9299359  35.4817892  11.3880037  68.4186584
  34.6276180  12.6349765  68.5042784  47.3612421  18.9661931  73.4291500
  48.2303580  19.1402583  73.0678135  46.8819172  19.7856348  73.3067229
  43.3562639   6.1621128  53.6823255  43.3441309   7.1062968  53.8391526
  44.2486061   5.9791273  53.3882716  41.5298601  26.0859032  65.1080933
  42.4325848  26.1182642  65.4247428  41.3035971  25.1559483  65.1227269
  43.2852203  24.8390018  61.7691012  42.3347834  24.8391880  61.6555384
  43.5884689  24.0922753  61.2527047  47.1714759   2.7563905  57.9369192
  46.4047154   2.2022391  58.0825874  47.5825464   2.8285773  58.7983344
  39.1756520   9.0448700  72.0274373  40.0387981   8.6885505  72.2377698
  38.6021930   8.7062595  72.7149778  59.0204897  30.6750557  62.8336774
  59.6583306  30.5557304  62.1300114  58.9025739  31.6231401  62.8924726
  55.8294603  30.6277985  62.7698299  55.4913114  30.5119050  61.8818834
  56.6984371  30.2269150  62.7499305  51.6881419  32.4813461  58.7595190
  51.1246284  32.3903398  57.9911478  51.5733814  31.6613366  59.2397682
  56.3114386  31.7812837  68.7284504  56.3003027  31.3865635  67.8565008
  56.4735025  31.0478909  69.3218276  49.2345850  33.9764653  61.5979410
  50.0267142  33.6355478  61.1825710  49.4742501  34.0859628  62.5181564
  57.2680977  36.1484429  54.0709655  56.6168957  36.7338509  53.6843669
  58.0625340  36.6790624  54.1304692  51.1936604  33.2373566  54.4696789
  51.9667480  32.6902553  54.3309665  51.5462003  34.1017815  54.6811251
  53.0321647  34.5649948  67.6763688  52.7411513  35.4695579  67.5610355
  53.6678631  34.6066476  68.3907758  53.9577854  31.9426797  64.2665048
  54.5541426  31.7182819  63.5522011  54.0152825  31.2011542  64.8690496
  53.5302882  29.3966232  52.1015239  53.7828403  28.8747754  51.3398702
  52.5927441  29.2332378  52.2041923  58.5746165  28.4002011  59.9089982
  59.3609254  27.9821434  59.5580399  58.8384869  29.3048103  60.0771631
  58.7456242  33.8374861  54.6078639  58.1102075  33.9109487  55.3199544
  58.4153649  34.4268460  53.9297718  63.9754592  28.3377244  60.8122961
  64.7079764  27.7676461  61.0460790  63.2193948  27.9498844  61.2529466
  53.2499171  31.2994338  54.3039614  53.1335429  30.6239242  54.9720698
  53.3601431  30.8126712  53.4871767  55.5930712  30.7604485  58.0086303
  55.2288919  30.2335106  58.7199225  56.4497828  30.3702954  57.8352789
  61.4980012  22.0498818  65.2717569  61.1663337  22.9194229  65.0478784
  60.9025626  21.7335102  65.9511600  55.2336199  25.7894385  53.0047652
  55.4010601  26.6574621  53.3718123  55.0433368  25.9521667  52.0808941
  57.9911532  34.2511364  64.6713482  57.6912255  35.1536403  64.5629289
  57.6462592  33.9843547  65.5234635  51.4424014  30.7025161  60.7050187
  50.5174510  30.5701375  60.9127878  51.6908427  31.4819380  61.2020129
  61.3908676  26.7693904  62.3510919  60.4825553  26.7009313  62.0569680
  61.3396272  27.2465849  63.1792745  55.2125420  28.2452042  53.9894319
  55.0925045  28.6909093  54.8279799  54.5178008  28.5937360  53.4307857
  48.8032825  30.3458434  61.5393976  48.9325206  30.5992913  62.4533387
  48.1230276  30.9386142  61.2198631  52.9732312  41.0155684  57.6384450
  52.8956342  41.9663509  57.7172930  52.3693955  40.6701557  58.2959376
  55.4649542  28.1883550  70.2945817  54.6882876  28.7477470  70.2848681
  56.1040105  28.6740333  70.8160687  63.2570322  24.9710342  64.1288793
  62.6144702  25.2642876  63.4828588  62.7525251  24.8563263  64.9341990
  60.9110486  28.7173516  54.8174653  61.8228342  28.9500902  54.6422350
  60.4020133  29.3010560  54.2549731  53.7195914  30.9969003  69.8563784
  54.4610598  31.5354047  69.5798607  53.0132899  31.6235292  70.0135336
  59.1951254  33.1398143  68.4535945  59.6034610  32.6980554  67.7090578
  58.4728515  32.5650771  68.7070138  55.5482324  28.0770750  65.8269502
  56.3943519  28.5010164  65.9704151  55.4880961  27.4204375  66.5208065
  59.5180068  33.6999334  62.2088234  58.8888931  33.8645048  61.5064302
  59.1305730  34.1140944  62.9799198  63.3969300  34.6353772  59.5632598
  62.7120338  35.0152673  59.0129631  63.4813149  35.2449099  60.2964546
  58.6981769  25.7375119  67.4850676  58.4542701  26.4917179  66.9484952
  58.9741699  26.1160466  68.3197923  60.6520232  32.2813731  66.1627941
  60.8637127  32.9245491  65.4862323  60.6049980  31.4476048  65.6949872
  58.2546461  24.8931552  63.0664514  57.3930940  25.1912805  63.3581251
  58.2808895  25.1101951  62.1345546  55.0708030  33.4373742  59.4738319
  55.5346376  33.7161445  58.6842942  54.8064828  32.5357187  59.2911410
  51.9632111  32.9845224  62.4118082  52.5333468  33.4132492  61.7735567
  52.5540223  32.7027808  63.1102268  54.0076916  29.5596895  56.2827884
  54.7100959  30.0117938  56.7501811  53.6757545  28.9180713  56.9107777
  52.4557278  28.1508651  70.6579094  51.8255938  28.8324932  70.8914491
  52.3493366  28.0391733  69.7132232  47.7502250  27.8180447  61.5845018
  46.9601304  28.0737976  61.1085129  48.2413497  28.6328785  61.6897058
  61.7666060  35.1585686  64.3350299  62.5883503  34.7565874  64.0532980
  61.7628463  35.0553921  65.2866415  49.7016995  28.1825026  58.5428495
  48.9048159  28.2943721  59.0611990  49.4742588  28.5211679  57.6769385
  55.5322663  34.7069730  66.4911009  55.5967096  35.1690137  67.3269181
  54.8233587  34.0767095  66.6193319  46.0339953  28.0710938  64.0160009
  46.2847991  28.9557948  64.2817585  46.5699501  27.8915539  63.2435101
  55.2470681  36.3737837  56.3589990  55.1116356  37.2189373  56.7874837
  55.7880493  36.5757115  55.5955923  51.7338020  22.4529417  73.0204345
  51.3404966  21.8995616  73.6951989  52.5504161  22.7639996  73.4110862
  48.7000078  33.8913275  56.9317915  49.2124599  34.6856525  57.0823479
  49.3522791  33.1939566  56.8651516  50.5094963  37.0079032  59.0140668
  50.6861591  37.9296996  58.8261652  51.3051796  36.6937451  59.4435048
  54.6505981  23.8687296  70.6124601  55.3915695  24.4694449  70.5329064
  54.8823904  23.1264934  70.0542644  49.7947319  29.0543663  68.8902831
  49.6800835  28.1528921  69.1909930  48.9391837  29.3007360  68.5387648
  56.8739157  36.9961404  70.4890332  56.4303011  36.2097782  70.1711236
  57.5356371  37.1840554  69.8234222  58.9720395  37.2764204  68.5171733
  58.9538871  38.0973085  68.0252002  59.8940315  37.1518279  68.7421874
  55.4293449  34.7908333  69.3595241  55.9621786  34.0296621  69.1294549
  54.9007530  34.4981985  70.1019396  58.5963144  19.8968399  64.8888883
  58.2527414  20.7870041  64.8127994  58.9642107  19.7070057  64.0258468
  46.6648995  32.2201930  57.7077485  47.5024217  32.6298938  57.4911193
  46.8427263  31.2801372  57.6777679  58.5613427  29.8877010  53.3961318
  58.0460050  30.6581615  53.6349706  58.2890735  29.2142146  54.0194380
  56.1460538  24.7326711  58.4546557  55.2902134  24.3433561  58.2752195
  56.5587490  24.8118672  57.5946342  57.6759685  22.2673054  62.8538116
  57.1724480  22.2303189  62.0405922  57.9690292  23.1765797  62.9134773
  53.9202571  22.3511784  61.8604298  54.7855567  22.1554593  61.5010188
  53.9880080  22.1222136  62.7873655  58.3499730  27.7604102  55.2221099
  58.0449866  28.0750251  56.0731243  59.3030172  27.8385522  55.2648432
  56.7946162  33.9194326  56.8714053  56.2667524  33.1847085  56.5587291
  56.2933665  34.6969002  56.6254022  61.7739008  32.1143346  61.9881100
  61.1162683  32.8042607  62.0761228  62.5779407  32.5039778  62.3315086
  51.5264890  24.5813992  59.2320665  52.1008642  24.3589173  58.4993858
  52.1135872  24.6502686  59.9849266  60.5844467  30.4687719  60.0385041
  61.0976349  31.1017711  60.5406751  61.2345691  29.8688914  59.6728401
  51.8534477  26.6118453  53.2516550  51.0171789  26.9493139  53.5725825
  51.7139246  26.4767433  52.3143687  53.8287557  21.4555241  57.9595734
  53.1751970  21.1404258  57.3352349  53.7868032  20.8330981  58.6855557
  54.9398762  31.7374536  49.8749026  54.0325824  31.5063789  50.0740175
  55.4369794  30.9412155  50.0623008  57.8466841  40.4472043  52.7945713
  57.1728540  40.7503740  53.4030670  58.2332663  41.2501123  52.4451170
  57.0625298  27.9437174  62.2843382  56.1447859  28.1652121  62.1265070
  57.4785441  28.0183485  61.4255089  57.8460346  29.3428590  57.4146062
  58.5932164  29.8549987  57.1053184  58.1151935  29.0212643  58.2750456
  56.1186996  31.8387131  54.3973016  55.2098215  31.5546164  54.4945486
  56.1482079  32.2586209  53.5376323  61.3506263  35.4493720  58.1664184
  60.8968590  34.6084630  58.2229374  60.7200230  36.0855119  58.5038964
  60.2939183  26.3785706  59.3964851  59.5561939  25.8663092  59.7275094
  60.5465956  25.9386088  58.5848128  59.7939202  37.2870217  59.1014002
  60.0862177  37.8475274  58.3826368  60.3037823  37.5798778  59.8567161
  60.3950810  19.1561958  59.9906621  60.7009687  18.2959322  59.7032536
  61.1203415  19.7479578  59.7905615  46.6875166  29.5592645  58.3788219
  46.4899566  28.9662006  57.6539285  46.1321830  29.2544855  59.0964157
  54.6671890  29.4515751  60.4982812  54.7220500  28.4989588  60.4225288
  53.8563092  29.6075190  60.9824110  55.8163083  33.3795874  51.7361095
  55.3782513  32.6631733  51.2766732  56.5573524  33.6071989  51.1746186
  52.6064250  28.0692811  58.2573191  51.7932115  28.3686982  58.6638383
  53.1023244  27.6748500  58.9747673  54.7572828  38.0650568  60.1907455
  54.7149006  38.2911414  59.2615987  55.6735526  37.8313943  60.3393257
  58.2038461  28.5334636  67.0888085  58.5587849  28.7606109  67.9482550
  58.8510593  28.8653012  66.4665340  52.0978324  25.6411167  63.8734426
  52.7377704  25.4999926  63.1757389  51.2655855  25.3545680  63.4973028
  52.8738628  34.9413597  59.9869418  53.6679227  34.4463917  59.7851993
  52.1630321  34.4131460  59.6237124  57.6933473  37.3231693  64.3381786
  57.7470495  37.8922629  65.1059502  56.8248254  37.4933578  63.9735823
  49.1821392  29.0856679  56.0629171  48.2518980  29.0241134  56.2799133
  49.2778864  28.5632632  55.2665812  49.1006941  25.6111492  58.6507412
  49.3613758  26.5256825  58.5416573  49.9224113  25.1435934  58.8004025
  50.5731866  27.0249249  65.8206237  51.2454920  26.8166611  65.1718886
  49.7461653  26.8271335  65.3811469  56.4757438  23.6511190  67.8371898
  55.8285353  24.3501139  67.7436374  57.2458454  24.0847334  68.2048146
  59.8836236  33.9160042  70.9122451  59.7321743  33.6870594  69.9952535
  59.8740916  34.8730643  70.9253796  56.6521573  31.4891955  65.8968718
  57.5813633  31.6403114  65.7237685  56.2312603  31.5775975  65.0417364
  55.4509904  35.5142619  63.6667255  55.3120990  35.1461403  64.5393193
  54.6624501  36.0290258  63.4951213  56.0458056  40.6151715  55.0092792
  56.2209812  40.1439759  55.8238414  55.3590844  41.2417482  55.2374052
  57.0015119  34.8924222  61.0556093  56.6664952  34.8524992  61.9513743
  56.5019065  34.2268938  60.5826503  50.9759363  30.2991852  66.5808674
  50.8379161  29.5672091  67.1820213  51.8864287  30.2100752  66.2992862
  59.9374311  32.2380256  51.3293153  59.3203482  31.5127084  51.2326205
  59.4690800  32.9989616  50.9860227  53.6041664  30.0111811  66.0692354
  54.3141283  29.3705003  66.0278972  53.5610972  30.2624706  66.9918535
  61.5928443  36.9479164  68.9898933  61.5340989  36.2638385  68.3229516
  61.9947961  37.6898154  68.5379559  52.3170598  26.9977029  67.8887993
  51.7807955  26.5467767  68.5409590  51.7287307  27.1322938  67.1458458
  51.7272857  26.4565680  50.4514457  50.8502323  26.3354481  50.0876704
  52.2030610  25.6651759  50.1993346  61.5945850  34.9118748  67.2212913
  60.7072629  34.5744670  67.3439312  62.1644401  34.1801780  67.4581678
  43.2474997  31.2442840  60.5455964  43.9346037  30.9304570  59.9576979
  43.0923126  32.1484205  60.2723215  48.0509719  26.1333037  64.9740988
  47.9667908  25.5258706  64.2391398  47.2292426  26.6242055  64.9750484
  54.9136783  38.8091971  57.6976977  54.1304305  39.3513651  57.7915202
  55.6129528  39.3265950  58.0971219  58.2233433  24.6186600  60.3411183
  58.7202133  23.8656562  60.0212253  57.4520415  24.6550917  59.7754392
  59.3063214  33.3758287  57.9149606  58.3719493  33.4959750  57.7454311
  59.4839882  32.4730754  57.6509616  54.8068402  26.7603983  60.0682867
  54.4366189  26.2075024  60.7563773  55.3027494  26.1562117  59.5157867
  60.6652428  21.5856194  62.4890542  59.7515508  21.8160421  62.6572749
  61.0945529  21.6694638  63.3404574  60.4358886  29.7746086  64.9890436
  59.7830337  30.0221993  64.3342888  60.8139266  28.9610224  64.6552913
  57.3966060  39.8105779  59.0918606  57.5788455  38.9927435  59.5546358
  58.2199046  40.0273471  58.6543496  57.7308226  38.7373964  56.3533654
  58.2595992  38.2266419  55.7403817  57.9936445  38.4216494  57.2179187
  56.4846459  30.5165897  71.4756473  55.8087096  30.4160026  72.1458848
  57.3074093  30.3605110  71.9392470  48.2325319  36.7537833  64.0968988
  48.8178755  36.0081521  64.2296892  48.0350157  37.0641790  64.9805652
  51.0863974  39.7889081  59.1131430  50.4174349  40.2735208  58.6295470
  50.9476843  40.0358301  60.0274809  42.8242973  29.3243433  62.8173431
  42.8627073  28.7907024  63.6110549  42.3183266  28.7978639  62.1984408
  50.2033736  24.1707974  66.3135973  50.2675062  25.0322805  65.9013371
  50.1400856  23.5581976  65.5808332  49.6786008  26.2431106  69.9609008
  50.3058047  25.8608184  70.5746532  48.8213927  26.0245308  70.3264700
  60.0780117  36.6494082  71.5662743  60.6220021  37.2624040  71.0717698
  59.4966962  37.2073660  72.0829756  46.4551551  28.0507536  55.8927363
  46.7504992  27.1418214  55.8394416  45.5539587  28.0295275  55.5708365
  58.3637630  39.7714800  62.6977771  58.2388769  38.9704540  62.1888716
  59.0216721  40.2660993  62.2091741  49.9845798  26.1263532  61.8754911
  49.2632384  26.7399500  61.7362384  50.7739054  26.6621297  61.7971557
  60.4272538  37.5723820  64.3257321  59.4802874  37.4529171  64.2535648
  60.7755311  36.6846318  64.4083582  52.7872111  23.4617959  68.1495563
  53.3106513  23.7080255  68.9121872  52.5684445  24.2937993  67.7298700
  48.1839392  25.7321633  56.0166688  47.8552099  24.8519012  55.8341794
  48.5378763  25.6769302  56.9043077  57.4318971  37.3676536  60.5261673
  57.2843934  36.4393243  60.7069243  58.2572465  37.3896627  60.0418748
  51.2981216  26.0194603  56.3842165  51.6377288  26.5480524  55.6620774
  51.7453336  26.3575009  57.1600732  61.0353093  38.1905095  61.6126546
  61.9599641  37.9847956  61.4750997  60.8668397  37.9421496  62.5215887
  53.9924656  24.4031654  65.8345233  53.6521477  23.6039467  66.2365913
  53.2863663  24.7033365  65.2622067  54.6441128  21.4880966  64.2872556
  55.4667198  21.0141444  64.1651447  54.8879192  22.2671450  64.7871243
  53.2849363  24.5169225  54.5835458  54.0057725  24.8950477  54.0799175
  52.6614667  25.2358101  54.6870436  57.4280486  25.2214374  55.5193790
  57.6444100  26.1039011  55.2182619  56.9474553  24.8300587  54.7899432
  52.1679707  28.1800087  62.0964535  52.0224288  28.4940390  62.9888817
  51.6904911  28.7984987  61.5435434  54.0276090  25.1702635  62.1445425
  54.0137659  24.2743728  61.8077723  54.7448518  25.1773299  62.7783711
  55.8802221  25.6039975  64.1898552  55.6219998  26.5257046  64.1882882
  55.3487261  25.2070410  64.8799016  60.8248409  38.7090762  56.9688637
  60.9985287  38.1437185  56.2162490  61.3177301  39.5091657  56.7868127
  46.6425369  30.7205431  65.0352196  46.0978837  31.4965239  65.1672471
  47.5204719  31.0676236  64.8771318  53.4312986  24.0517015  57.4132995
  53.5528897  23.1233661  57.6123882  53.1415028  24.0655701  56.5011310
  56.3004176  21.7371926  60.5499715  56.3225873  21.8011259  59.5951694
  56.7172235  20.8976434  60.7440221  61.8123582  38.0257527  54.0685536
  62.5074486  38.6464219  54.2872850  62.1546732  37.1752878  54.3437914
  47.4291391  29.8475327  67.9282353  46.6873127  29.9957963  68.5146984
  47.1084135  30.1083593  67.0649103  55.3955666  41.5429215  59.9568120
  54.9560656  41.0505594  60.6500976  56.1463783  41.0002183  59.7160195
  47.8748005  37.7340756  59.9592748  48.7006025  37.4344528  59.5791391
  47.5242057  36.9648379  60.4082536  46.0756610  35.6527083  60.9181681
  45.2388518  35.2249257  60.7365683  46.0480255  35.8459526  61.8552473
  52.9154065  25.5649012  71.6222927  52.9642221  26.4411135  71.2400697
  53.4576580  25.0226406  71.0494571  52.4043045  35.6371148  55.5048882
  52.5531165  36.3206612  54.8515555  53.2109488  35.6176238  56.0198338
  60.8110548  28.9413530  69.5316100  61.7120411  28.8019995  69.2400098
  60.8858523  29.1067985  70.4714277  55.1453354  26.3180385  68.3769286
  54.2756663  26.6113951  68.1051875  55.3812834  26.9020830  69.0976550
  63.2712171  30.5012158  66.9278873  63.7466293  30.6939805  66.1197724
  62.3477737  30.5571344  66.6822256  50.1595678  31.6636325  56.5109951
  49.9141720  30.7598655  56.7090161  50.3291592  31.6653476  55.5689429
  57.8492388  22.5360002  65.8934706  58.3674332  23.2721029  65.5681195
  57.4947520  22.8423995  66.7281466  49.4291325  27.3964683  54.0096112
  48.7360570  27.4709038  53.3536148  49.1843077  26.6325027  54.5317629
  58.1004982  18.9560284  61.4135603  58.3806736  18.2883473  62.0396030
  58.8855589  19.1489380  60.9010267  55.9038450  38.1319278  52.9760629
  55.3312417  38.7509465  52.5231101  56.4771244  38.6818640  53.5100551
  61.9713840  27.3777918  65.1607178  62.9231263  27.4776016  65.1819402
  61.8017291  26.5856187  65.6705262  59.9928220  24.4633502  65.3466579
  59.3978152  24.7438514  64.6513068  59.7077916  24.9527402  66.1183320
  59.1235710  38.4156428  54.1069212  60.0566383  38.3501990  54.3102087
  59.0358923  39.2512695  53.6483744  61.7523727  37.7322299  51.0673159
  61.6737358  37.3982162  51.9608917  62.5733394  38.2244067  51.0664632
  64.4501918  30.5984038  64.2749478  64.4178238  29.6600039  64.4609162
  65.0602542  30.6768075  63.5415303  56.2885249  29.4680091  50.3176682
  57.2344354  29.3386299  50.3865100  55.9099494  28.7294753  50.7946110
  64.5996406  27.3895081  64.3207761  64.0835455  26.6053538  64.1337690
  65.4836355  27.0613798  64.4854280  62.2607133  21.1336097  60.2803574
  62.0631954  20.8251185  61.1646906  62.8706839  21.8597736  60.4101503
  56.1723941  33.5197837  71.7777339  57.0926951  33.6976436  71.9717385
  56.1373524  32.5753882  71.6257038  54.4728166  27.3930067  50.2531567
  53.5659621  27.0963180  50.3294281  54.7504147  27.0959885  49.3865853
  45.3906106  28.7136431  60.7030613  45.0708891  27.8601739  60.4104987
  44.8439535  28.9285009  61.4588581  49.1686014  31.4298872  64.4200120
  49.3872024  32.3615980  64.4388154  49.5811788  31.0706846  65.2054924
  56.0890232  21.9366957  56.4075808  55.2790960  21.5914042  56.7831054
  56.7774649  21.6274501  56.9963420  58.0180780  21.0145004  58.0300105
  58.5711819  21.4340457  58.6890128  58.2550866  20.0880752  58.0723061
  54.0413879  27.0032078  73.8102869  53.9410606  27.9526434  73.7414960
  53.8235421  26.6750316  72.9378939  53.2426951  24.2517003  50.3943546
  54.1046115  24.5771901  50.6539364  53.4277295  23.4648498  49.8816612
  45.2594366  32.3339342  62.6723735  44.5657838  31.9193295  62.1593689
  46.0067357  32.3759879  62.0757154  61.3959587  23.1245529  57.5378769
  60.8158256  23.7830333  57.1556822  61.1295520  22.3022874  57.1266187
  59.8463153  22.5250587  59.7400090  60.3462932  22.6367121  58.9314408
  60.4898761  22.2211640  60.3800898  53.9045149  30.4329216  72.6267931
  53.4212231  31.2329576  72.8331820  53.9906088  30.4437161  71.6735375
  47.1731109  32.2657596  60.5489750  47.1501797  32.3645283  59.5971633
  47.4831745  33.1122747  60.8706916  49.8318487  34.3233751  64.6636364
  50.7861740  34.2917693  64.5966296  49.6331010  33.8624375  65.4786590
  50.4217869  32.8934867  67.2307162  51.2410758  33.3878946  67.2541999
  50.6954677  31.9766835  67.2024729  60.1784465  25.2845619  56.5935118
  59.2910320  25.5695270  56.3755312  60.5938454  25.1239383  55.7462394
  63.5299001  25.3092140  60.3089457  64.3059391  25.7988593  60.5814074
  62.8047135  25.7350195  60.7661326  65.9671560  26.0219760  61.3663397
  66.5616051  25.7815496  60.6556706  66.0398144  25.3026890  61.9936934
  48.1868716  39.8653371  61.6806562  48.0523183  39.1053771  61.1144560
  47.7700778  40.5894270  61.2135351  59.3227679  35.0490294  50.6883137
  60.0263529  35.2540297  51.3040793  58.5990327  35.6167056  50.9532221
  60.1525489  30.8000155  56.8085408  60.0960690  31.2568707  55.9693040
  60.7053831  30.0390840  56.6308250  63.9630295  26.5889887  57.6335527
  63.7067229  26.1886523  58.4643735  63.3383163  27.3033681  57.5085666
  45.6752783  27.2273001  67.9299359  46.3211647  26.7171955  68.4186584
  45.4669934  27.9641683  68.5042784  58.2006175  34.2953848  73.4291500
  59.0697335  34.4694501  73.0678135  57.7212927  35.1148265  73.3067229
  54.1956394  21.4913046  53.6823255  54.1835063  22.4354886  53.8391526
  55.0879815  21.3083191  53.3882716  58.0108513  18.0855822  57.9369192
  57.2440909  17.5314309  58.0825874  58.4219218  18.1577691  58.7983344
  50.0150274  24.3740618  72.0274373  50.8781736  24.0177423  72.2377698
  49.4415685  24.0354513  72.7149778  62.0330359  48.5665484  54.4696789
  62.8061235  48.0194471  54.3309665  62.3855758  49.4309733  54.6811251
  64.3696637  44.7258150  52.1015239  64.6222157  44.2039671  51.3398702
  63.4321196  44.5624295  52.2041923  64.0892925  46.6286256  54.3039614
  63.9729184  45.9531159  54.9720698  64.1995185  46.1418630  53.4871767
  64.8470671  44.8888812  56.2827884  65.5494714  45.3409856  56.7501811
  64.5151299  44.2472631  56.9107777  60.5410750  43.5116944  58.5428495
  59.7441913  43.6235638  59.0611990  60.3136342  43.8503596  57.6769385
  62.5731775  37.7821335  73.0204345  62.1798720  37.2287533  73.6951989
  63.3897915  38.0931913  73.4110862  62.3658644  39.9105910  59.2320665
  62.9402396  39.6881091  58.4993858  62.9529627  39.9794604  59.9849266
  63.4458004  43.3984729  58.2573191  62.6325870  43.6978899  58.6638383
  63.9416998  43.0040418  58.9747673  60.0215146  44.4148596  56.0629171
  59.0912734  44.3533052  56.2799133  60.1172618  43.8924549  55.2665812
  59.9400695  40.9403409  58.6507412  60.2007513  41.8548743  58.5416573
  60.7617868  40.4727852  58.8004025  70.7229991  49.2451960  70.9122451
  70.5715497  49.0162511  69.9952535  70.7134670  50.2022561  70.9253796
  66.8851811  55.9443633  55.0092792  67.0603566  55.4731676  55.8238414
  66.1984599  56.5709399  55.2374052  65.6462156  42.0895901  60.0682867
  65.2759944  41.5366941  60.7563773  66.1421249  41.4854034  59.5157867
  61.0427490  39.4999892  66.3135973  61.1068817  40.3614723  65.9013371
  60.9794610  38.8873893  65.5808332  57.2945305  43.3799453  55.8927363
  57.5898746  42.4710132  55.8394416  56.3933341  43.3587193  55.5708365
  63.6265866  38.7909876  68.1495563  64.1500268  39.0372173  68.9121872
  63.4078199  39.6229911  67.7298700  59.0233147  41.0613551  56.0166688
  58.6945853  40.1810930  55.8341794  59.3772518  41.0061220  56.9043077
  62.1374970  41.3486521  56.3842165  62.4771043  41.8772442  55.6620774
  62.5847091  41.6866927  57.1600732  64.8318411  39.7323571  65.8345233
  64.4915231  38.9331385  66.2365913  64.1257417  40.0325282  65.2622067
  64.8669844  40.4994552  62.1445425  64.8531413  39.6035646  61.8077723
  65.5842272  40.5065216  62.7783711  64.2706740  39.3808933  57.4132995
  64.3922652  38.4525579  57.6123882  63.9808783  39.3947619  56.5011310
  63.7547820  40.8940930  71.6222927  63.8035975  41.7703053  71.2400697
  64.2970334  40.3518323  71.0494571  71.6504303  44.2705448  69.5316100
  72.5514166  44.1311913  69.2400098  71.7252277  44.4359903  70.4714277
  60.2685080  42.7256601  54.0096112  59.5754325  42.8000956  53.3536148
  60.0236832  41.9616944  54.5317629  64.8807634  42.3323995  73.8102869
  64.7804361  43.2818352  73.7414960  64.6629176  42.0042234  72.9378939
  60.8544029  39.7032536  72.0274373  61.7175490  39.3469341  72.2377698
  60.2809439  39.3646431  72.7149778  73.4125529  53.1113252  73.0204345
  73.0192475  52.5579451  73.6951989  74.2291670  53.4223831  73.4110862
  72.2906651  74.4224914  61.7832652  72.5303249  75.0543438  62.4611670
  71.4475847  74.0712954  62.0698011  91.5386160  76.6626310  62.8336774
  92.1764570  76.5433057  62.1300114  91.4207003  77.6107154  62.8924726
  88.3475866  76.6153738  62.7698299  88.0094378  76.4994803  61.8818834
  89.2165634  76.2144903  62.7499305  84.2062682  78.4689214  58.7595190
  83.6427547  78.3779151  57.9911478  84.0915077  77.6489119  59.2397682
  88.8295649  77.7688590  68.7284504  88.8184290  77.3741388  67.8565008
  88.9916289  77.0354662  69.3218276  81.7527114  79.9640406  61.5979410
  82.5448406  79.6231231  61.1825710  81.9923764  80.0735381  62.5181564
  89.7862241  82.1360182  54.0709655  89.1350220  82.7214262  53.6843669
  90.5806604  82.6666377  54.1304692  83.7117868  79.2249319  54.4696789
  84.4848744  78.6778306  54.3309665  84.0643267  80.0893568  54.6811251
  85.5502910  80.5525701  67.6763688  85.2592776  81.4571332  67.5610355
  86.1859895  80.5942229  68.3907758  86.4759117  77.9302550  64.2665048
  87.0722690  77.7058572  63.5522011  86.5334089  77.1887295  64.8690496
  86.0484146  75.3841985  52.1015239  86.3009666  74.8623507  51.3398702
  85.1108705  75.2208131  52.2041923  91.0927428  74.3877764  59.9089982
  91.8790518  73.9697187  59.5580399  91.3566133  75.2923856  60.0771631
  91.2637506  79.8250614  54.6078639  90.6283339  79.8985240  55.3199544
  90.9334912  80.4144213  53.9297718  96.4935856  74.3252997  60.8122961
  97.2261028  73.7552214  61.0460790  95.7375211  73.9374597  61.2529466
  85.7680434  77.2870091  54.3039614  85.6516693  76.6114995  54.9720698
  85.8782694  76.8002465  53.4871767  88.1111975  76.7480238  58.0086303
  87.7470183  76.2210859  58.7199225  88.9679091  76.3578707  57.8352789
  90.5092796  80.2387117  64.6713482  90.2093519  81.1412156  64.5629289
  90.1643855  79.9719300  65.5234635  83.9605277  76.6900914  60.7050187
  83.0355773  76.5577128  60.9127878  84.2089690  77.4695133  61.2020129
  93.9089939  72.7569657  62.3510919  93.0006817  72.6885066  62.0569680
  93.8577535  73.2341602  63.1792745  87.7306683  74.2327796  53.9894319
  87.6106308  74.6784846  54.8279799  87.0359272  74.5813113  53.4307857
  81.3214088  76.3334187  61.5393976  81.4506469  76.5868666  62.4533387
  80.6411539  76.9261895  61.2198631  85.4913575  87.0031437  57.6384450
  85.4137605  87.9539262  57.7172930  84.8875219  86.6577310  58.2959376
  87.9830805  74.1759303  70.2945817  87.2064139  74.7353223  70.2848681
  88.6221368  74.6616086  70.8160687  95.7751586  70.9586096  64.1288793
  95.1325966  71.2518629  63.4828588  95.2706514  70.8439016  64.9341990
  93.4291749  74.7049269  54.8174653  94.3409605  74.9376655  54.6422350
  92.9201396  75.2886313  54.2549731  86.2377177  76.9844756  69.8563784
  86.9791862  77.5229800  69.5798607  85.5314163  77.6111045  70.0135336
  91.7132517  79.1273897  68.4535945  92.1215873  78.6856307  67.7090578
  90.9909779  78.5526524  68.7070138  88.0663587  74.0646503  65.8269502
  88.9124782  74.4885917  65.9704151  88.0062225  73.4080128  66.5208065
  92.0361332  79.6875087  62.2088234  91.4070194  79.8520801  61.5064302
  91.6486994  80.1016697  62.9799198  95.9150564  80.6229525  59.5632598
  95.2301602  81.0028426  59.0129631  95.9994413  81.2324852  60.2964546
  91.2163032  71.7250872  67.4850676  90.9723964  72.4792932  66.9484952
  91.4922963  72.1036219  68.3197923  93.1701495  78.2689484  66.1627941
  93.3818390  78.9121244  65.4862323  93.1231243  77.4351801  65.6949872
  90.7727724  70.8807305  63.0664514  89.9112203  71.1788558  63.3581251
  90.7990159  71.0977704  62.1345546  87.5889294  79.4249495  59.4738319
  88.0527639  79.7037198  58.6842942  87.3246092  78.5232940  59.2911410
  84.4813375  78.9720977  62.4118082  85.0514732  79.4008245  61.7735567
  85.0721486  78.6903561  63.1102268  86.5258180  75.5472648  56.2827884
  87.2282223  75.9993691  56.7501811  86.1938808  74.9056466  56.9107777
  84.9738541  74.1384404  70.6579094  84.3437202  74.8200685  70.8914491
  84.8674629  74.0267486  69.7132232  80.2683514  73.8056200  61.5845018
  79.4782568  74.0613729  61.1085129  80.7594761  74.6204538  61.6897058
  94.2847323  81.1461439  64.3350299  95.1064767  80.7441627  64.0532980
  94.2809726  81.0429674  65.2866415  88.0503927  80.6945483  66.4911009
  88.1148359  81.1565890  67.3269181  87.3414850  80.0642848  66.6193319
  78.5521217  74.0586691  64.0160009  78.8029255  74.9433701  64.2817585
  79.0880765  73.8791292  63.2435101 102.3753316  77.4900188  60.6835270
 101.6217025  76.9207586  60.5279275 102.5100857  77.4562852  61.6305905
  87.7651944  82.3613590  56.3589990  87.6297619  83.2065126  56.7874837
  88.3061757  82.5632868  55.5955923  84.2519284  68.4405170  73.0204345
  83.8586229  67.8871369  73.6951989  85.0685424  68.7515749  73.4110862
  83.0276226  82.9954785  59.0140668  83.2042855  83.9172749  58.8261652
  83.8233060  82.6813204  59.4435048  82.3128583  75.0419416  68.8902831
  82.1982098  74.1404674  69.1909930  81.4573101  75.2883113  68.5387648
  89.3920421  82.9837157  70.4890332  88.9484275  82.1973535  70.1711236
  90.0537634  83.1716307  69.8234222  84.1507542  84.5132958  65.0151010
  84.7014967  84.3850022  64.2428004  83.3119018  84.8127847  64.6645903
  91.4901659  83.2639957  68.5171733  91.4720134  84.0848838  68.0252002
  92.4121579  83.1394032  68.7421874  87.9474713  80.7784086  69.3595241
  88.4803050  80.0172374  69.1294549  87.4188794  80.4857738  70.1019396
  91.0794691  75.8752763  53.3961318  90.5641314  76.6457368  53.6349706
  90.8071999  75.2017899  54.0194380  88.6641802  70.7202464  58.4546557
  87.8083398  70.3309314  58.2752195  89.0768753  70.7994425  57.5946342
  96.0528965  78.6285118  55.3314492  95.2758407  78.2896277  54.8869654
  96.7320446  78.6337741  54.6569457  90.8680994  73.7479855  55.2221099
  90.5631129  74.0626004  56.0731243  91.8211436  73.8261275  55.2648432
  89.3127426  79.9070079  56.8714053  88.7848787  79.1722838  56.5587291
  88.8114928  80.6844755  56.6254022  94.2920272  78.1019099  61.9881100
  93.6343946  78.7918361  62.0761228  95.0960671  78.4915531  62.3315086
  93.1025730  76.4563472  60.0385041  93.6157612  77.0893464  60.5406751
  93.7526954  75.8564667  59.6728401  87.4580026  77.7250289  49.8749026
  86.5507087  77.4939542  50.0740175  87.9551058  76.9287908  50.0623008
  90.3648105  86.4347796  52.7945713  89.6909803  86.7379493  53.4030670
  90.7513927  87.2376876  52.4451170  89.5806561  73.9312927  62.2843382
  88.6629123  74.1527874  62.1265070  89.9966705  74.0059238  61.4255089
  90.3641609  75.3304343  57.4146062  91.1113428  75.8425740  57.1053184
  90.6333199  75.0088396  58.2750456  88.6368259  77.8262884  54.3973016
  87.7279478  77.5421917  54.4945486  88.6663343  78.2461962  53.5376323
  93.8687527  81.4369473  58.1664184  93.4149854  80.5960383  58.2229374
  93.2381493  82.0730872  58.5038964  92.8120446  72.3661459  59.3964851
  92.0743203  71.8538845  59.7275094  93.0647220  71.9261841  58.5848128
  92.3120466  83.2745970  59.1014002  92.6043440  83.8351027  58.3826368
  92.8219086  83.5674531  59.8567161  87.1853153  75.4391504  60.4982812
  87.2401763  74.4865341  60.4225288  86.3744355  75.5950943  60.9824110
  88.3344347  79.3671627  51.7361095  87.8963777  78.6507486  51.2766732
  89.0754788  79.5947742  51.1746186  85.1245513  74.0568564  58.2573191
  84.3113379  74.3562735  58.6638383  85.6204507  73.6624253  58.9747673
  87.2754091  84.0526321  60.1907455  87.2330270  84.2787167  59.2615987
  88.1916790  83.8189696  60.3393257  90.7219725  74.5210389  67.0888085
  91.0769113  74.7481862  67.9482550  91.3691856  74.8528765  66.4665340
  96.4517462  77.6428824  57.7937414  96.3135360  77.8330420  56.8658603
  96.0953681  78.4048207  58.2505465  84.6159588  71.6286920  63.8734426
  85.2558967  71.4875679  63.1757389  83.7837118  71.3421433  63.4973028
  96.4786841  79.7105351  62.8048685  96.9123348  79.6180641  63.6531739
  97.1918422  79.6862852  62.1668701  85.3919892  80.9289350  59.9869418
  86.1860490  80.4339670  59.7851993  84.6811584  80.4007213  59.6237124
  90.2114736  83.3107446  64.3381786  90.2651759  83.8798382  65.1059502
  89.3429518  83.4809331  63.9735823  83.0913130  73.0125002  65.8206237
  83.7636183  72.8042364  65.1718886  82.2642916  72.8147088  65.3811469
  97.3402391  79.7529052  65.3381571  97.5338281  80.6574863  65.5840845
  97.2403009  79.2936471  66.1720156  92.4017500  79.9035795  70.9122451
  92.2503006  79.6746347  69.9952535  92.3922179  80.8606396  70.9253796
  89.1702836  77.4767708  65.8968718  90.0994896  77.6278867  65.7237685
  88.7493866  77.5651728  65.0417364  87.9691168  81.5018372  63.6667255
  87.8302253  81.1337156  64.5393193  87.1805764  82.0166011  63.4951213
  88.5639320  86.6027469  55.0092792  88.7391075  86.1315512  55.8238414
  87.8772108  87.2293235  55.2374052  89.5196383  80.8799975  61.0556093
  89.1846216  80.8400745  61.9513743  89.0200329  80.2144691  60.5826503
  83.4940627  76.2867605  66.5808674  83.3560425  75.5547844  67.1820213
  84.4045550  76.1976505  66.2992862  92.4555575  78.2256009  51.3293153
  91.8384745  77.5002837  51.2326205  91.9872063  78.9865369  50.9860227
  86.1222928  75.9987564  66.0692354  86.8322546  75.3580756  66.0278972
  86.0792236  76.2500459  66.9918535  94.1109706  82.9354917  68.9898933
  94.0522252  82.2514138  68.3229516  94.5129225  83.6773907  68.5379559
  84.8351862  72.9852782  67.8887993  84.2989219  72.5343520  68.5409590
  84.2468570  73.1198691  67.1458458  83.1300405  89.7516831  61.7832652
  83.3697003  90.3835355  62.4611670  82.2869602  89.4004871  62.0698011
  94.1127114  80.8994501  67.2212913  93.2253892  80.5620423  67.3439312
  94.6825665  80.1677533  67.4581678  75.7656261  77.2318593  60.5455964
  76.4527300  76.9180323  59.9576979  75.6104389  78.1359958  60.2723215
  87.6428267  85.5595954  64.1874156  87.5698438  86.3650925  64.6993460
  87.2005660  85.7587920  63.3622177  87.4318047  84.7967724  57.6976977
  86.6485568  85.3389404  57.7915202  88.1310792  85.3141703  58.0971219
  90.7414697  70.6062353  60.3411183  91.2383396  69.8532316  60.0212253
  89.9701678  70.6426670  59.7754392  98.5944454  76.3102719  61.9829474
  98.5834330  77.1927434  61.6123407  97.7261833  75.9574270  61.7884011
  90.1026950  85.4582788  66.3432315  90.8154923  86.0930253  66.2708216
  89.6116979  85.5546654  65.5272316  91.8244477  79.3634040  57.9149606
  90.8900756  79.4835503  57.7454311  92.0021146  78.4606507  57.6509616
  87.3249665  72.7479736  60.0682867  86.9547453  72.1950777  60.7563773
  87.8208758  72.1437870  59.5157867  95.2117029  75.2051360  58.4499640
  95.6777481  76.0379351  58.3759943  95.6624529  74.7396341  59.1544899
  85.1538864  83.2077231  67.1637885  85.8548323  83.8413714  67.3167280
  84.6833979  83.5491963  66.4033525  93.2793260  81.5495181  55.4485792
  93.5553104  81.4351776  56.3579666  92.4097759  81.1512666  55.4097965
  92.9540150  75.7621839  64.9890436  92.3011600  76.0097746  64.3342888
  93.3320530  74.9485977  64.6552913  89.9147324  85.7981532  59.0918606
  90.0969718  84.9803188  59.5546358  90.7380310  86.0149224  58.6543496
  90.2489489  84.7249717  56.3533654  90.7777256  84.2142172  55.7403817
  90.5117709  84.4092247  57.2179187  89.0027723  76.5041650  71.4756473
  88.3268360  76.4035779  72.1458848  89.8255357  76.3480863  71.9392470
  80.7506582  82.7413586  64.0968988  81.3360019  81.9957274  64.2296892
  80.5531420  83.0517543  64.9805652  83.6045237  85.7764834  59.1131430
  82.9355612  86.2610961  58.6295470  83.4658107  86.0234054  60.0274809
  75.3424237  75.3119186  62.8173431  75.3808336  74.7782777  63.6110549
  74.8364530  74.7854392  62.1984408  87.7450506  87.8108577  65.7114089
  88.2968814  87.9740199  66.4763174  88.0856699  88.4013015  65.0394114
  92.5961380  82.6369835  71.5662743  93.1401284  83.2499793  71.0717698
  92.0148225  83.1949413  72.0829756  90.8818893  85.7590553  62.6977771
  90.7570033  84.9580293  62.1888716  91.5397984  86.2536746  62.2091741
  82.5027061  72.1139285  61.8754911  81.7813647  72.7275253  61.7362384
  83.2920317  72.6497050  61.7971557  92.9453801  83.5599573  64.3257321
  91.9984137  83.4404924  64.2535648  93.2936575  82.6722071  64.4083582
  89.9500235  83.3552289  60.5261673  89.8025197  82.4268996  60.7069243
  90.7753728  83.3772380  60.0418748  93.5534357  84.1780848  61.6126546
  94.4780904  83.9723709  61.4750997  93.3849660  83.9297249  62.5215887
  84.6860970  74.1675840  62.0964535  84.5405551  74.4816143  62.9888817
  84.2086174  74.7860740  61.5435434  86.5457353  71.1578388  62.1445425
  86.5318922  70.2619481  61.8077723  87.2629781  71.1649052  62.7783711
  88.3983484  71.5915728  64.1898552  88.1401262  72.5132799  64.1882882
  87.8668524  71.1946163  64.8799016  93.3429673  84.6966515  56.9688637
  93.5166550  84.1312938  56.2162490  93.8358564  85.4967410  56.7868127
  79.1606633  76.7081184  65.0352196  78.6160101  77.4840992  65.1672471
  80.0385982  77.0551989  64.8771318  99.1969064  77.4602938  58.5878937
  99.6400210  76.7110263  58.1898060  98.3195574  77.4513074  58.2052669
  94.3304845  84.0133280  54.0685536  95.0255750  84.6339972  54.2872850
  94.6727995  83.1628631  54.3437914  79.9472654  75.8351081  67.9282353
  79.2054391  75.9833716  68.5146984  79.6265399  76.0959346  67.0649103
  96.2296268  81.4632985  55.5972866  96.7547593  81.8020258  54.8722187
  96.1418621  80.5280000  55.4136001  87.8916317  85.3767059  67.7262743
  88.2003444  85.1316206  68.5985443  88.6891799  85.5813697  67.2381613
  87.9136929  87.5304968  59.9568120  87.4741919  87.0381347  60.6500976
  88.6645046  86.9877936  59.7160195  80.3929268  83.7216509  59.9592748
  81.2187288  83.4220281  59.5791391  80.0423320  82.9524132  60.4082536
  85.3610801  83.0742977  62.0290421  84.7390811  82.4113682  61.7292649
  86.0315668  83.1004109  61.3464069  78.5937873  81.6402836  60.9181681
  77.7569782  81.2125010  60.7365683  78.5661519  81.8335279  61.8552473
  85.4335329  71.5524765  71.6222927  85.4823484  72.4286888  71.2400697
  85.9757843  71.0102159  71.0494571  95.9190175  82.0965889  70.9024064
  95.1285718  82.0790028  70.3628564  95.6823529  82.6354182  71.6573101
  96.0388050  78.9458355  68.2156793  96.0886054  78.7808363  69.1572316
  95.9301973  78.0785614  67.8254674  84.9224308  81.6246901  55.5048882
  85.0712429  82.3082365  54.8515555  85.7290752  81.6051991  56.0198338
  93.3291812  74.9289283  69.5316100  94.2301675  74.7895748  69.2400098
  93.4039786  75.0943738  70.4714277  87.6634617  72.3056138  68.3769286
  86.7937927  72.5989704  68.1051875  87.8994098  72.8896583  69.0976550
  97.5406246  81.3655297  68.4598815  97.2491055  81.7285277  69.2962275
  96.9278378  80.6522305  68.2812147  98.7401929  78.9308176  60.9801385
  99.5748820  79.3697980  61.1438945  98.8761057  78.4546830  60.1609631
  95.7893435  76.4887911  66.9278873  96.2647556  76.6815558  66.1197724
  94.8659000  76.5447097  66.6822256  88.4219714  84.1195031  52.9760629
  87.8493681  84.7385218  52.5231101  88.9952507  84.6694393  53.5100551
  94.4895104  73.3653671  65.1607178  95.4412527  73.4651769  65.1819402
  94.3198554  72.5731940  65.6705262  92.5109483  70.4509255  65.3466579
  91.9159415  70.7314267  64.6513068  92.2259180  70.9403155  66.1183320
  91.6416974  84.4032181  54.1069212  92.5747647  84.3377743  54.3102087
  91.5540186  85.2388448  53.6483744  94.2704990  83.7198052  51.0673159
  94.1918622  83.3857915  51.9608917  95.0914657  84.2119820  51.0664632
  96.9683181  76.5859791  64.2749478  96.9359502  75.6475792  64.4609162
  97.5783805  76.6643828  63.5415303  88.8066512  75.4555844  50.3176682
  89.7525617  75.3262052  50.3865100  88.4280757  74.7170506  50.7946110
  97.1177670  73.3770834  64.3207761  96.6016719  72.5929291  64.1337690
  98.0017618  73.0489551  64.4854280 102.7859731  77.6475798  63.4155515
 103.5163120  77.3861086  63.9763218 102.1766677  76.9104520  63.4557583
 100.8675028  75.7883660  64.0129966 100.1408192  75.6539625  63.4046457
 100.4522315  76.0960489  64.8186684  88.6905205  79.5073590  71.7777339
  89.6108214  79.6852189  71.9717385  88.6554788  78.5629636  71.6257038
  81.6867277  77.4174625  64.4200120  81.9053287  78.3491733  64.4388154
  82.0993051  77.0582599  65.2054924  86.5595143  72.9907831  73.8102869
  86.4591870  73.9402188  73.7414960  86.3416685  72.6626069  72.9378939
  77.7775630  78.3215095  62.6723735  77.0839101  77.9069048  62.1593689
  78.5248621  78.3635632  62.0757154  93.9140851  69.1121282  57.5378769
  93.3339520  69.7706086  57.1556822  93.6476783  68.2898627  57.1266187
  92.3644417  68.5126340  59.7400090  92.8644195  68.6242874  58.9314408
  93.0080025  68.2087393  60.3800898  86.4226413  76.4204969  72.6267931
  85.9393494  77.2205330  72.8331820  86.5087352  76.4312914  71.6735375
  82.3499750  80.3109504  64.6636364  83.3043004  80.2793446  64.5966296
  82.1512274  79.8500128  65.4786590  82.9399132  78.8810620  67.2307162
  83.7592021  79.3754699  67.2541999  83.2135940  77.9642588  67.2024729
  92.6965729  71.2721372  56.5935118  91.8091584  71.5571023  56.3755312
  93.1119718  71.1115136  55.7462394  96.0480265  71.2967893  60.3089457
  96.8240655  71.7864346  60.5814074  95.3228399  71.7225948  60.7661326
  98.4852823  72.0095513  61.3663397  99.0797314  71.7691249  60.6556706
  98.5579407  71.2902643  61.9936934  80.7049979  85.8529124  61.6806562
  80.5704447  85.0929524  61.1144560  80.2882041  86.5770023  61.2135351
  91.8408942  81.0366047  50.6883137  92.5444792  81.2416050  51.3040793
  91.1171591  81.6042809  50.9532221  92.6706752  76.7875908  56.8085408
  92.6141954  77.2444460  55.9693040  93.2235095  76.0266593  56.6308250
  96.4811558  72.5765640  57.6335527  96.2248492  72.1762276  58.4643735
  95.8564426  73.2909434  57.5085666 100.7923896  75.3161714  60.1406819
 100.2323454  75.3854903  60.9138381 100.1867399  75.1402698  59.4206315
  83.8619105  86.7498441  61.8925005  83.7451489  87.6943873  61.7903695
  83.0411551  86.4472002  62.2810804  93.7495639  81.4748576  52.7381598
  94.5841243  81.0429775  52.5559072  93.5879982  81.3030590  53.6658492
  93.4041532  77.9780690  54.1037937  93.3490335  77.8124961  53.1626381
  92.7787587  78.6856723  54.2600127  90.7187439  80.2829602  73.4291500
  91.5878598  80.4570254  73.0678135  90.2394190  81.1024018  73.3067229
  84.8873619  87.4026703  65.1080933  85.7900866  87.4350313  65.4247428
  84.6610989  86.4727153  65.1227269  86.6427221  86.1557689  61.7691012
  85.6922852  86.1559551  61.6555384  86.9459707  85.4090424  61.2527047
 102.3779915  91.9918227  62.8336774 103.0158324  91.8724975  62.1300114
 102.2600757  92.9399071  62.8924726  99.1869621  91.9445656  62.7698299
  98.8488132  91.8286720  61.8818834 100.0559389  91.5436821  62.7499305
  95.0456436  93.7981132  58.7595190  94.4821302  93.7071069  57.9911478
  94.9308832  92.9781036  59.2397682  99.6689404  93.0980507  68.7284504
  99.6578045  92.7033306  67.8565008  99.8310043  92.3646580  69.3218276
  92.5920868  95.2932324  61.5979410  93.3842160  94.9523148  61.1825710
  92.8317519  95.4027299  62.5181564 100.6255995  97.4652100  54.0709655
  99.9743975  98.0506180  53.6843669 101.4200358  97.9958295  54.1304692
  94.5511622  94.5541237  54.4696789  95.3242498  94.0070224  54.3309665
  94.9037021  95.4185486  54.6811251  96.3896665  95.8817619  67.6763688
  96.0986531  96.7863250  67.5610355  97.0253649  95.9234147  68.3907758
  97.3152872  93.2594468  64.2665048  97.9116444  93.0350490  63.5522011
  97.3727843  92.5179213  64.8690496  96.8877900  90.7133903  52.1015239
  97.1403421  90.1915424  51.3398702  95.9502459  90.5500048  52.2041923
 101.9321183  89.7169681  59.9089982 102.7184272  89.2989104  59.5580399
 102.1959887  90.6215773  60.0771631 102.1031260  95.1542532  54.6078639
 101.4677093  95.2277158  55.3199544 101.7728667  95.7436130  53.9297718
 107.3329610  89.6544915  60.8122961 108.0654782  89.0844131  61.0460790
 106.5768966  89.2666515  61.2529466  96.6074189  92.6162009  54.3039614
  96.4910447  91.9406912  54.9720698  96.7176449  92.1294383  53.4871767
  98.9505730  92.0772156  58.0086303  98.5863937  91.5502777  58.7199225
  99.8072846  91.6870625  57.8352789 104.8555030  83.3666489  65.2717569
 104.5238355  84.2361900  65.0478784 104.2600644  83.0502773  65.9511600
  98.5911217  87.1062056  53.0047652  98.7585619  87.9742292  53.3718123
  98.4008386  87.2689337  52.0808941 101.3486550  95.5679035  64.6713482
 101.0487273  96.4704073  64.5629289 101.0037610  95.3011218  65.5234635
  94.7999031  92.0192831  60.7050187  93.8749528  91.8869046  60.9127878
  95.0483445  92.7987051  61.2020129 104.7483694  88.0861575  62.3510919
 103.8400571  88.0176983  62.0569680 104.6971290  88.5633520  63.1792745
  98.5700438  89.5619713  53.9894319  98.4500063  90.0076764  54.8279799
  97.8753026  89.9105031  53.4307857  92.1607843  91.6626105  61.5393976
  92.2900224  91.9160584  62.4533387  91.4805294  92.2553813  61.2198631
  96.3307330 102.3323355  57.6384450  96.2531359 103.2831180  57.7172930
  95.7268973 101.9869227  58.2959376  98.8224560  89.5051220  70.2945817
  98.0457894  90.0645141  70.2848681  99.4615123  89.9908003  70.8160687
 106.6145340  86.2878013  64.1288793 105.9719720  86.5810546  63.4828588
 106.1100269  86.1730934  64.9341990 104.2685504  90.0341186  54.8174653
 105.1803360  90.2668573  54.6422350 103.7595151  90.6178231  54.2549731
  97.0770932  92.3136674  69.8563784  97.8185616  92.8521718  69.5798607
  96.3707917  92.9402962  70.0135336 102.5526272  94.4565814  68.4535945
 102.9609628  94.0148225  67.7090578 101.8303533  93.8818442  68.7070138
  98.9057342  89.3938421  65.8269502  99.7518537  89.8177835  65.9704151
  98.8455979  88.7372045  66.5208065 102.8755086  95.0167005  62.2088234
 102.2463949  95.1812719  61.5064302 102.4880748  95.4308614  62.9799198
 106.7544318  95.9521443  59.5632598 106.0695356  96.3320344  59.0129631
 106.8388167  96.5616769  60.2964546 102.0556787  87.0542789  67.4850676
 101.8117719  87.8084850  66.9484952 102.3316717  87.4328137  68.3197923
 104.0095250  93.5981402  66.1627941 104.2212145  94.2413162  65.4862323
 103.9624998  92.7643718  65.6949872 101.6121479  86.2099222  63.0664514
 100.7505958  86.5080476  63.3581251 101.6383913  86.4269621  62.1345546
  98.4283048  94.7541413  59.4738319  98.8921394  95.0329116  58.6842942
  98.1639846  93.8524857  59.2911410  95.3207129  94.3012894  62.4118082
  95.8908486  94.7300163  61.7735567  95.9115241  94.0195479  63.1102268
  97.3651934  90.8764565  56.2827884  98.0675977  91.3285609  56.7501811
  97.0332563  90.2348384  56.9107777  95.8132296  89.4676322  70.6579094
  95.1830956  90.1492603  70.8914491  95.7068384  89.3559404  69.7132232
  91.1077268  89.1348118  61.5845018  90.3176322  89.3905646  61.1085129
  91.5988515  89.9496456  61.6897058 105.1241078  96.4753357  64.3350299
 105.9458521  96.0733544  64.0532980 105.1203480  96.3721591  65.2866415
  93.0592013  89.4992697  58.5428495  92.2623177  89.6111391  59.0611990
  92.8317606  89.8379349  57.6769385  98.8897681  96.0237400  66.4911009
  98.9542114  96.4857808  67.3269181  98.1808605  95.3934765  66.6193319
  89.3914971  89.3878608  64.0160009  89.6423009  90.2725618  64.2817585
  89.9274519  89.2083210  63.2435101 113.2147071  92.8192106  60.6835270
 112.4610779  92.2499504  60.5279275 113.3494612  92.7854770  61.6305905
  98.6045699  97.6905508  56.3589990  98.4691374  98.5357044  56.7874837
  99.1455511  97.8924786  55.5955923  95.0913038  83.7697088  73.0204345
  94.6979984  83.2163286  73.6951989  95.9079179  84.0807666  73.4110862
  92.0575096  95.2080946  56.9317915  92.5699617  96.0024196  57.0823479
  92.7097809  94.5107236  56.8651516  93.8669981  98.3246702  59.0140668
  94.0436609  99.2464667  58.8261652  94.6626814  98.0105121  59.4435048
  98.0080999  85.1854967  70.6124601  98.7490713  85.7862120  70.5329064
  98.2398922  84.4432605  70.0542644  93.1522337  90.3711334  68.8902831
  93.0375852  89.4696591  69.1909930  92.2966855  90.6175031  68.5387648
 100.2314175  98.3129074  70.4890332  99.7878029  97.5265453  70.1711236
 100.8931389  98.5008225  69.8234222  94.9901296  99.8424876  65.0151010
  95.5408721  99.7141939  64.2428004  94.1512772 100.1419765  64.6645903
 102.3295413  98.5931874  68.5171733 102.3113889  99.4140755  68.0252002
 103.2515333  98.4685950  68.7421874  98.7868467  96.1076004  69.3595241
  99.3196804  95.3464292  69.1294549  98.2582548  95.8149656  70.1019396
 101.9538162  81.2136070  64.8888883 101.6102432  82.1037711  64.8127994
 102.3217125  81.0237727  64.0258468  90.0224013  93.5369600  57.7077485
  90.8599235  93.9466609  57.4911193  90.2002281  92.5969042  57.6777679
 101.9188445  91.2044681  53.3961318 101.4035068  91.9749286  53.6349706
 101.6465753  90.5309817  54.0194380  99.5035556  86.0494382  58.4546557
  98.6477152  85.6601232  58.2752195  99.9162508  86.1286342  57.5946342
 101.0334703  83.5840725  62.8538116 100.5299498  83.5470860  62.0405922
 101.3265310  84.4933468  62.9134773  97.2777589  83.6679455  61.8604298
  98.1430585  83.4722263  61.5010188  97.3455097  83.4389806  62.7873655
 106.8922719  93.9577036  55.3314492 106.1152162  93.6188195  54.8869654
 107.5714200  93.9629659  54.6569457 101.7074748  89.0771773  55.2221099
 101.4024884  89.3917922  56.0731243 102.6605190  89.1553193  55.2648432
 100.1521180  95.2361996  56.8714053  99.6242542  94.5014756  56.5587291
  99.6508683  96.0136673  56.6254022 105.1314026  93.4311017  61.9881100
 104.4737700  94.1210278  62.0761228 105.9354425  93.8207449  62.3315086
  94.8839908  85.8981663  59.2320665  95.4583660  85.6756844  58.4993858
  95.4710890  85.9670357  59.9849266 103.9419485  91.7855389  60.0385041
 104.4551367  92.4185381  60.5406751 104.5920709  91.1856585  59.6728401
  95.2109495  87.9286124  53.2516550  94.3746807  88.2660810  53.5725825
  95.0714264  87.7935103  52.3143687  97.1862575  82.7722911  57.9595734
  96.5326988  82.4571929  57.3352349  97.1443049  82.1498652  58.6855557
  98.2973780  93.0542207  49.8749026  97.3900842  92.8231460  50.0740175
  98.7944812  92.2579826  50.0623008 101.2041859 101.7639714  52.7945713
 100.5303558 102.0671411  53.4030670 101.5907681 102.5668794  52.4451170
 100.4200316  89.2604845  62.2843382  99.5022877  89.4819792  62.1265070
 100.8360459  89.3351156  61.4255089 101.2035363  90.6596261  57.4146062
 101.9507182  91.1717658  57.1053184 101.4726953  90.3380313  58.2750456
  99.4762014  93.1554801  54.3973016  98.5673233  92.8713834  54.4945486
  99.5057097  93.5753880  53.5376323 104.7081281  96.7661391  58.1664184
 104.2543608  95.9252301  58.2229374 104.0775248  97.4022789  58.5038964
 103.6514201  87.6953377  59.3964851 102.9136957  87.1830763  59.7275094
 103.9040974  87.2553759  58.5848128 103.1514220  98.6037888  59.1014002
 103.4437195  99.1642945  58.3826368 103.6612841  98.8966449  59.8567161
 103.7525828  80.4729629  59.9906621 104.0584705  79.6126992  59.7032536
 104.4778433  81.0647249  59.7905615  90.0450184  90.8760316  58.3788219
  89.8474584  90.2829676  57.6539285  89.4896848  90.5712526  59.0964157
  98.0246908  90.7683422  60.4982812  98.0795517  89.8157258  60.4225288
  97.2138110  90.9242861  60.9824110  99.1738101  94.6963545  51.7361095
  98.7357531  93.9799404  51.2766732  99.9148542  94.9239660  51.1746186
  95.9639268  89.3860482  58.2573191  95.1507133  89.6854652  58.6638383
  96.4598262  88.9916171  58.9747673  98.1147845  99.3818239  60.1907455
  98.0724024  99.6079085  59.2615987  99.0310544  99.1481613  60.3393257
 101.5613479  89.8502306  67.0888085 101.9162867  90.0773779  67.9482550
 102.2085611  90.1820683  66.4665340 107.2911216  92.9720742  57.7937414
 107.1529115  93.1622338  56.8658603 106.9347435  93.7340125  58.2505465
  95.4553342  86.9578837  63.8734426  96.0952722  86.8167596  63.1757389
  94.6230873  86.6713351  63.4973028 107.3180596  95.0397269  62.8048685
 107.7517102  94.9472558  63.6531739 108.0312177  95.0154770  62.1668701
  96.2313646  96.2581268  59.9869418  97.0254245  95.7631588  59.7851993
  95.5205339  95.7299131  59.6237124 101.0508491  98.6399363  64.3381786
 101.1045513  99.2090300  65.1059502 100.1823272  98.8101248  63.9735823
  92.5396410  90.4024349  56.0629171  91.6093998  90.3408805  56.2799133
  92.6353882  89.8800302  55.2665812  92.4581959  86.9279162  58.6507412
  92.7188776  87.8424496  58.5416573  93.2799131  86.4603605  58.8004025
  93.9306884  88.3416919  65.8206237  94.6029938  88.1334282  65.1718886
  93.1036671  88.1439005  65.3811469 108.1796145  95.0820970  65.3381571
 108.3732035  95.9866780  65.5840845 108.0796764  94.6228389  66.1720156
  99.8332456  84.9678860  67.8371898  99.1860371  85.6668810  67.7436374
 100.6033472  85.4015004  68.2048146 103.2411254  95.2327713  70.9122451
 103.0896760  95.0038264  69.9952535 103.2315934  96.1898314  70.9253796
 100.0096590  92.8059625  65.8968718 100.9388650  92.9570785  65.7237685
  99.5887620  92.8943646  65.0417364  98.8084922  96.8310290  63.6667255
  98.6696008  96.4629074  64.5393193  98.0199518  97.3457929  63.4951213
  99.4033074 101.9319386  55.0092792  99.5784830 101.4607429  55.8238414
  98.7165862 102.5585152  55.2374052 100.3590137  96.2091892  61.0556093
 100.0239970  96.1692662  61.9513743  99.8594083  95.5436608  60.5826503
  94.3334381  91.6159522  66.5808674  94.1954179  90.8839761  67.1820213
  95.2439305  91.5268423  66.2992862 103.2949329  93.5547927  51.3293153
 102.6778500  92.8294755  51.2326205 102.8265818  94.3157287  50.9860227
  96.9616682  91.3279482  66.0692354  97.6716301  90.6872674  66.0278972
  96.9185990  91.5792377  66.9918535 104.9503461  98.2646835  68.9898933
 104.8916007  97.5806055  68.3229516 105.3522979  99.0065825  68.5379559
  95.6745616  88.3144700  67.8887993  95.1382973  87.8635438  68.5409590
  95.0862324  88.4490608  67.1458458  93.9694160 105.0808749  61.7832652
  94.2090758 105.7127273  62.4611670  93.1263356 104.7296789  62.0698011
  95.0847875  87.7733351  50.4514457  94.2077341  87.6522152  50.0876704
  95.5605628  86.9819429  50.1993346 104.9520868  96.2286419  67.2212913
 104.0647647  95.8912341  67.3439312 105.5219419  95.4969450  67.4581678
  86.6050015  92.5610511  60.5455964  87.2921055  92.2472241  59.9576979
  86.4498144  93.4651875  60.2723215  91.4084737  87.4500707  64.9740988
  91.3242926  86.8426377  64.2391398  90.5867444  87.9409726  64.9750484
  98.4822021 100.8887871  64.1874156  98.4092193 101.6942843  64.6993460
  98.0399414 101.0879837  63.3622177  98.2711801 100.1259641  57.6976977
  97.4879323 100.6681322  57.7915202  98.9704546 100.6433621  58.0971219
 101.5808451  85.9354271  60.3411183 102.0777151  85.1824233  60.0212253
 100.8095433  85.9718588  59.7754392 109.4338209  91.6394636  61.9829474
 109.4228085  92.5219352  61.6123407 108.5655588  91.2866187  61.7884011
 100.9420705 100.7874705  66.3432315 101.6548677 101.4222170  66.2708216
 100.4510734 100.8838571  65.5272316 102.6638232  94.6925958  57.9149606
 101.7294511  94.8127421  57.7454311 102.8414900  93.7898425  57.6509616
  98.1643420  88.0771654  60.0682867  97.7941207  87.5242694  60.7563773
  98.6602512  87.4729787  59.5157867 106.0510783  90.5343277  58.4499640
 106.5171235  91.3671269  58.3759943 106.5018284  90.0688259  59.1544899
  95.9932618  98.5369149  67.1637885  96.6942078  99.1705632  67.3167280
  95.5227733  98.8783880  66.4033525 104.1187014  96.8787099  55.4485792
 104.3946858  96.7643693  56.3579666 103.2491513  96.4804584  55.4097965
 104.0227446  82.9023864  62.4890542 103.1090526  83.1328091  62.6572749
 104.4520547  82.9862308  63.3404574 103.7933904  91.0913756  64.9890436
 103.1405355  91.3389664  64.3342888 104.1714284  90.2777895  64.6552913
 100.7541078 101.1273450  59.0918606 100.9363473 100.3095105  59.5546358
 101.5774064 101.3441142  58.6543496 101.0883244 100.0541635  56.3533654
 101.6171010  99.5434089  55.7403817 101.3511463  99.7384165  57.2179187
  99.8421477  91.8333567  71.4756473  99.1662114  91.7327697  72.1458848
 100.6649111  91.6772781  71.9392470  91.5900336  98.0705504  64.0968988
  92.1753773  97.3249192  64.2296892  91.3925175  98.3809461  64.9805652
  94.4438992 101.1056751  59.1131430  93.7749367 101.5902879  58.6295470
  94.3051861 101.3525972  60.0274809  86.1817991  90.6411104  62.8173431
  86.2202091  90.1074695  63.6110549  85.6758284  90.1146310  62.1984408
  98.5844260 103.1400495  65.7114089  99.1362568 103.3032116  66.4763174
  98.9250454 103.7304933  65.0394114  93.5608754  85.4875645  66.3135973
  93.6250080  86.3490476  65.9013371  93.4975874  84.8749646  65.5808332
  93.0361026  87.5598777  69.9609008  93.6633065  87.1775855  70.5746532
  92.1788945  87.3412979  70.3264700 103.4355135  97.9661752  71.5662743
 103.9795039  98.5791711  71.0717698 102.8541979  98.5241331  72.0829756
  89.8126569  89.3675206  55.8927363  90.1080010  88.4585885  55.8394416
  88.9114605  89.3462946  55.5708365 101.7212648 101.0882470  62.6977771
 101.5963787 100.2872210  62.1888716 102.3791739 101.5828664  62.2091741
  93.3420816  87.4431203  61.8754911  92.6207402  88.0567171  61.7362384
  94.1314072  87.9788968  61.7971557 103.7847556  98.8891490  64.3257321
 102.8377891  98.7696842  64.2535648 104.1330329  98.0013988  64.4083582
  96.1447129  84.7785629  68.1495563  96.6681531  85.0247926  68.9121872
  95.9259463  85.6105664  67.7298700  91.5414410  87.0489304  56.0166688
  91.2127117  86.1686683  55.8341794  91.8953781  86.9936973  56.9043077
 100.7893989  98.6844207  60.5261673 100.6418952  97.7560914  60.7069243
 101.6147483  98.7064297  60.0418748  94.6556234  87.3362274  56.3842165
  94.9952306  87.8648195  55.6620774  95.1028354  87.6742680  57.1600732
 104.3928111  99.5072765  61.6126546 105.3174659  99.3015627  61.4750997
 104.2243414  99.2589167  62.5215887  97.3499674  85.7199324  65.8345233
  97.0096495  84.9207138  66.2365913  96.6438681  86.0201035  65.2622067
  98.0016146  82.8048637  64.2872556  98.8242216  82.3309115  64.1651447
  98.2454210  83.5839121  64.7871243  96.6424381  85.8336895  54.5835458
  97.3632743  86.2118148  54.0799175  96.0189685  86.5525772  54.6870436
 100.7855504  86.5382044  55.5193790 101.0019118  87.4206682  55.2182619
 100.3049571  86.1468258  54.7899432  95.5254725  89.4967758  62.0964535
  95.3799306  89.8108061  62.9888817  95.0479929  90.1152658  61.5435434
  97.3851108  86.4870306  62.1445425  97.3712677  85.5911399  61.8077723
  98.1023536  86.4940969  62.7783711  99.2377239  86.9207646  64.1898552
  98.9795016  87.8424716  64.1882882  98.7062279  86.5238080  64.8799016
 104.1823427 100.0258433  56.9688637 104.3560305  99.4604855  56.2162490
 104.6752319 100.8259328  56.7868127  90.0000387  92.0373102  65.0352196
  89.4553855  92.8132910  65.1672471  90.8779737  92.3843906  64.8771318
  96.7888004  85.3684686  57.4132995  96.9103915  84.4401332  57.6123882
  96.4990046  85.3823372  56.5011310  99.6579194  83.0539596  60.5499715
  99.6800891  83.1178929  59.5951694 100.0747253  82.2144105  60.7440221
 110.0362818  92.7894856  58.5878937 110.4793965  92.0402181  58.1898060
 109.1589329  92.7804992  58.2052669 105.1698600  99.3425197  54.0685536
 105.8649504  99.9631890  54.2872850 105.5121750  98.4920548  54.3437914
  90.7866409  91.1642998  67.9282353  90.0448145  91.3125634  68.5146984
  90.4659153  91.4251264  67.0649103 107.0690023  96.7924903  55.5972866
 107.5941347  97.1312176  54.8722187 106.9812375  95.8571918  55.4136001
  98.7310072 100.7058976  67.7262743  99.0397198 100.4608123  68.5985443
  99.5285554 100.9105615  67.2381613  98.7530684 102.8596886  59.9568120
  98.3135674 102.3673265  60.6500976  99.5038801 102.3169854  59.7160195
  91.2323023  99.0508427  59.9592748  92.0581043  98.7512199  59.5791391
  90.8817075  98.2816049  60.4082536  96.2004556  98.4034895  62.0290421
  95.5784565  97.7405600  61.7292649  96.8709423  98.4296027  61.3464069
  89.4331628  96.9694753  60.9181681  88.5963536  96.5416928  60.7365683
  89.4055273  97.1627197  61.8552473  96.2729083  86.8816683  71.6222927
  96.3217239  87.7578806  71.2400697  96.8151598  86.3394076  71.0494571
 106.7583929  97.4257806  70.9024064 105.9679473  97.4081945  70.3628564
 106.5217284  97.9646100  71.6573101 106.8781804  94.2750273  68.2156793
 106.9279809  94.1100280  69.1572316 106.7695727  93.4077532  67.8254674
  95.7618063  96.9538818  55.5048882  95.9106183  97.6374283  54.8515555
  96.5684506  96.9343909  56.0198338 104.1685566  90.2581201  69.5316100
 105.0695429  90.1187666  69.2400098 104.2433541  90.4235656  70.4714277
  98.5028372  87.6348056  68.3769286  97.6331681  87.9281622  68.1051875
  98.7387852  88.2188501  69.0976550 108.3800001  96.6947214  68.4598815
 108.0884809  97.0577195  69.2962275 107.7672132  95.9814223  68.2812147
 109.5795683  94.2600094  60.9801385 110.4142575  94.6989898  61.1438945
 109.7154812  93.7838747  60.1609631 106.6287189  91.8179829  66.9278873
 107.1041311  92.0107475  66.1197724 105.7052754  91.8739015  66.6822256
  93.5170696  92.9803996  56.5109951  93.2716738  92.0766326  56.7090161
  93.6866610  92.9821147  55.5689429 101.2067406  83.8527673  65.8934706
 101.7249349  84.5888699  65.5681195 100.8522538  84.1591666  66.7281466
  92.7866343  88.7132354  54.0096112  92.0935588  88.7876709  53.3536148
  92.5418095  87.9492697  54.5317629 101.4580000  80.2727955  61.4135603
 101.7381754  79.6051144  62.0396030 102.2430607  80.4657051  60.9010267
  99.2613468  99.4486949  52.9760629  98.6887435 100.0677136  52.5231101
  99.8346262  99.9986311  53.5100551 105.3288858  88.6945589  65.1607178
 106.2806281  88.7943687  65.1819402 105.1592309  87.9023858  65.6705262
 103.3503238  85.7801172  65.3466579 102.7553170  86.0606185  64.6513068
 103.0652934  86.2695073  66.1183320 102.4810728  99.7324099  54.1069212
 103.4141401  99.6669661  54.3102087 102.3933941 100.5680366  53.6483744
 105.1098745  99.0489969  51.0673159 105.0312376  98.7149833  51.9608917
 105.9308412  99.5411737  51.0664632 107.8076936  91.9151709  64.2749478
 107.7753256  90.9767709  64.4609162 108.4177560  91.9935745  63.5415303
  99.6460267  90.7847762  50.3176682 100.5919371  90.6553970  50.3865100
  99.2674512  90.0462424  50.7946110 107.9571424  88.7062752  64.3207761
 107.4410473  87.9221209  64.1337690 108.8411373  88.3781469  64.4854280
 105.6182151  82.4503768  60.2803574 105.4206972  82.1418856  61.1646906
 106.2281857  83.1765407  60.4101503 113.6253486  92.9767716  63.4155515
 114.3556874  92.7153004  63.9763218 113.0160431  92.2396438  63.4557583
 111.7068783  91.1175578  64.0129966 110.9801946  90.9831543  63.4046457
 111.2916070  91.4252407  64.8186684  99.5298959  94.8365508  71.7777339
 100.4501969  95.0144107  71.9717385  99.4948542  93.8921553  71.6257038
  97.8303184  88.7097738  50.2531567  96.9234639  88.4130851  50.3294281
  98.1079165  88.4127556  49.3865853  88.7481124  90.0304101  60.7030613
  88.4283909  89.1769410  60.4104987  88.2014552  90.2452680  61.4588581
  92.5261032  92.7466542  64.4200120  92.7447042  93.6783650  64.4388154
  92.9386806  92.3874517  65.2054924  99.4465250  83.2534628  56.4075808
  98.6365978  82.9081713  56.7831054 100.1349667  82.9442172  56.9963420
 101.3755798  82.3312675  58.0300105 101.9286837  82.7508128  58.6890128
 101.6125884  81.4048423  58.0723061  97.3988897  88.3199748  73.8102869
  97.2985624  89.2694105  73.7414960  97.1810439  87.9917987  72.9378939
  96.6001969  85.5684673  50.3943546  97.4621133  85.8939572  50.6539364
  96.7852313  84.7816169  49.8816612  88.6169384  93.6507013  62.6723735
  87.9232856  93.2360966  62.1593689  89.3642375  93.6927549  62.0757154
 104.7534605  84.4413200  57.5378769 104.1733274  85.0998004  57.1556822
 104.4870538  83.6190544  57.1266187 103.2038171  83.8418257  59.7400090
 103.7037950  83.9534792  58.9314408 103.8473779  83.5379310  60.3800898
  97.2620167  91.7496887  72.6267931  96.7787249  92.5497247  72.8331820
  97.3481106  91.7604832  71.6735375  90.5306127  93.5825267  60.5489750
  90.5076815  93.6812954  59.5971633  90.8406763  94.4290418  60.8706916
  93.1893505  95.6401422  64.6636364  94.1436758  95.6085364  64.5966296
  92.9906028  95.1792046  65.4786590  93.7792887  94.2102538  67.2307162
  94.5985776  94.7046617  67.2541999  94.0529695  93.2934506  67.2024729
 103.5359483  86.6013290  56.5935118 102.6485338  86.8862941  56.3755312
 103.9513472  86.4407054  55.7462394 106.8874019  86.6259811  60.3089457
 107.6634409  87.1156264  60.5814074 106.1622153  87.0517865  60.7661326
 109.3246578  87.3387430  61.3663397 109.9191069  87.0983166  60.6556706
 109.3973161  86.6194561  61.9936934  91.5443733 101.1821041  61.6806562
  91.4098201 100.4221442  61.1144560  91.1275796 101.9061941  61.2135351
 102.6802696  96.3657965  50.6883137 103.3838547  96.5707967  51.3040793
 101.9565345  96.9334727  50.9532221 103.5100507  92.1167826  56.8085408
 103.4535708  92.5736378  55.9693040 104.0628849  91.3558511  56.6308250
 107.3205313  87.9057558  57.6335527 107.0642247  87.5054194  58.4643735
 106.6958181  88.6201352  57.5085666 111.6317651  90.6453631  60.1406819
 111.0717209  90.7146821  60.9138381 111.0261154  90.4694616  59.4206315
  94.7012859 102.0790358  61.8925005  94.5845244 103.0235791  61.7903695
  93.8805306 101.7763920  62.2810804 104.5889394  96.8040494  52.7381598
 105.4234998  96.3721692  52.5559072 104.4273737  96.6322508  53.6658492
 104.2435286  93.3072607  54.1037937 104.1884090  93.1416879  53.1626381
 103.6181341  94.0148640  54.2600127  89.0327801  88.5440672  67.9299359
  89.6786665  88.0339626  68.4186584  88.8244952  89.2809353  68.5042784
 101.5581193  95.6121519  73.4291500 102.4272353  95.7862171  73.0678135
 101.0787945  96.4315936  73.3067229  97.5531412  82.8080716  53.6823255
  97.5410081  83.7522556  53.8391526  98.4454833  82.6250862  53.3882716
  95.7267373 102.7318620  65.1080933  96.6294620 102.7642230  65.4247428
  95.5004744 101.8019071  65.1227269  97.4820976 101.4849607  61.7691012
  96.5316607 101.4851468  61.6555384  97.7853462 100.7382341  61.2527047
 101.3683531  79.4023493  57.9369192 100.6015927  78.8481980  58.0825874
 101.7794236  79.4745362  58.7983344  93.3725292  85.6908289  72.0274373
  94.2356754  85.3345094  72.2377698  92.7990703  85.3522184  72.7149778
 113.2173669 107.3210145  62.8336774 113.8552079 107.2016892  62.1300114
 113.0994512 108.2690989  62.8924726 110.0263375 107.2737573  62.7698299
 109.6881887 107.1578638  61.8818834 110.8953143 106.8728738  62.7499305
 105.8850191 109.1273050  58.7595190 105.3215056 109.0362987  57.9911478
 105.7702586 108.3072954  59.2397682 110.5083158 108.4272425  68.7284504
 110.4971799 108.0325223  67.8565008 110.6703798 107.6938498  69.3218276
 103.4314623 110.6224241  61.5979410 104.2235915 110.2815066  61.1825710
 103.6711273 110.7319216  62.5181564 105.3905377 109.8833154  54.4696789
 106.1636253 109.3362142  54.3309665 105.7430776 110.7477404  54.6811251
 107.2290419 111.2109537  67.6763688 106.9380285 112.1155168  67.5610355
 107.8647404 111.2526064  68.3907758 108.1546626 108.5886385  64.2665048
 108.7510199 108.3642408  63.5522011 108.2121598 107.8471131  64.8690496
 107.7271655 106.0425821  52.1015239 107.9797175 105.5207342  51.3398702
 106.7896214 105.8791966  52.2041923 112.7714937 105.0461599  59.9089982
 113.5578027 104.6281022  59.5580399 113.0353642 105.9507691  60.0771631
 112.9425015 110.4834449  54.6078639 112.3070848 110.5569076  55.3199544
 112.6122421 111.0728048  53.9297718 118.1723365 104.9836832  60.8122961
 118.9048537 104.4136049  61.0460790 117.4162720 104.5958433  61.2529466
 107.4467943 107.9453927  54.3039614 107.3304202 107.2698830  54.9720698
 107.5570203 107.4586301  53.4871767 109.7899484 107.4064074  58.0086303
 109.4257692 106.8794695  58.7199225 110.6466600 107.0162543  57.8352789
 115.6948785  98.6958406  65.2717569 115.3632110  99.5653817  65.0478784
 115.0994398  98.3794690  65.9511600 109.4304971 102.4353973  53.0047652
 109.5979374 103.3034210  53.3718123 109.2402140 102.5981255  52.0808941
 112.1880304 110.8970952  64.6713482 111.8881028 111.7995991  64.5629289
 111.8431364 110.6303135  65.5234635 105.6392786 107.3484749  60.7050187
 104.7143282 107.2160963  60.9127878 105.8877199 108.1278968  61.2020129
 115.5877448 103.4153492  62.3510919 114.6794326 103.3468901  62.0569680
 115.5365044 103.8925437  63.1792745 109.4094192 104.8911631  53.9894319
 109.2893817 105.3368682  54.8279799 108.7146781 105.2396949  53.4307857
 103.0001597 106.9918023  61.5393976 103.1293978 107.2452502  62.4533387
 102.3199048 107.5845731  61.2198631 109.6618314 104.8343138  70.2945817
 108.8851648 105.3937058  70.2848681 110.3008877 105.3199921  70.8160687
 117.4539095 101.6169931  64.1288793 116.8113475 101.9102464  63.4828588
 116.9494023 101.5022851  64.9341990 115.1079258 105.3633104  54.8174653
 116.0197114 105.5960491  54.6422350 114.5988905 105.9470148  54.2549731
 107.9164686 107.6428591  69.8563784 108.6579371 108.1813635  69.5798607
 107.2101672 108.2694880  70.0135336 113.3920026 109.7857732  68.4535945
 113.8003382 109.3440142  67.7090578 112.6697288 109.2110359  68.7070138
 109.7451096 104.7230339  65.8269502 110.5912291 105.1469752  65.9704151
 109.6849734 104.0663963  66.5208065 113.7148841 110.3458922  62.2088234
 113.0857703 110.5104637  61.5064302 113.3274503 110.7600532  62.9799198
 112.8950541 102.3834707  67.4850676 112.6511473 103.1376768  66.9484952
 113.1710472 102.7620055  68.3197923 114.8489004 108.9273319  66.1627941
 115.0605899 109.5705079  65.4862323 114.8018752 108.0935636  65.6949872
 112.4515233 101.5391140  63.0664514 111.5899712 101.8372394  63.3581251
 112.4777668 101.7561539  62.1345546 109.2676803 110.0833331  59.4738319
 109.7315148 110.3621034  58.6842942 109.0033601 109.1816775  59.2911410
 106.1600884 109.6304812  62.4118082 106.7302241 110.0592080  61.7735567
 106.7508995 109.3487397  63.1102268 108.2045689 106.2056483  56.2827884
 108.9069732 106.6577527  56.7501811 107.8726317 105.5640302  56.9107777
 106.6526050 104.7968240  70.6579094 106.0224711 105.4784520  70.8914491
 106.5462138 104.6851321  69.7132232 101.9471023 104.4640036  61.5845018
 101.1570077 104.7197564  61.1085129 102.4382270 105.2788373  61.6897058
 103.8985768 104.8284615  58.5428495 103.1016931 104.9403309  59.0611990
 103.6711360 105.1671267  57.6769385 109.7291436 111.3529318  66.4911009
 109.7935868 111.8149725  67.3269181 109.0202359 110.7226683  66.6193319
 100.2308726 104.7170526  64.0160009 100.4816764 105.6017536  64.2817585
 100.7668274 104.5375128  63.2435101 109.4439453 113.0197426  56.3589990
 109.3085128 113.8648961  56.7874837 109.9849266 113.2216703  55.5955923
 105.9306793  99.0989005  73.0204345 105.5373738  98.5455204  73.6951989
 106.7472933  99.4099584  73.4110862 102.8968851 110.5372864  56.9317915
 103.4093371 111.3316114  57.0823479 103.5491563 109.8399154  56.8651516
 104.7063735 113.6538620  59.0140668 104.8830364 114.5756585  58.8261652
 105.5020569 113.3397039  59.4435048 108.8474754 100.5146885  70.6124601
 109.5884467 101.1154038  70.5329064 109.0792677  99.7724522  70.0542644
 103.9916092 105.7003252  68.8902831 103.8769607 104.7988509  69.1909930
 103.1360610 105.9466949  68.5387648 105.8295051 115.1716794  65.0151010
 106.3802476 115.0433857  64.2428004 104.9906527 115.4711683  64.6645903
 109.6262222 111.4367922  69.3595241 110.1590559 110.6756210  69.1294549
 109.0976303 111.1441573  70.1019396 112.7931917  96.5427987  64.8888883
 112.4496186  97.4329629  64.8127994 113.1610879  96.3529645  64.0258468
 100.8617767 108.8661518  57.7077485 101.6992989 109.2758526  57.4911193
 101.0396035 107.9260960  57.6777679 112.7582199 106.5336599  53.3961318
 112.2428823 107.3041203  53.6349706 112.4859508 105.8601735  54.0194380
 110.3429311 101.3786299  58.4546557 109.4870907 100.9893150  58.2752195
 110.7556262 101.4578260  57.5946342 111.8728457  98.9132643  62.8538116
 111.3693253  98.8762778  62.0405922 112.1659064  99.8225385  62.9134773
 108.1171343  98.9971372  61.8604298 108.9824340  98.8014181  61.5010188
 108.1848852  98.7681724  62.7873655 112.5468503 104.4063691  55.2221099
 112.2418638 104.7209840  56.0731243 113.4998945 104.4845111  55.2648432
 110.9914935 110.5653914  56.8714053 110.4636296 109.8306674  56.5587291
 110.4902437 111.3428590  56.6254022 105.7233662 101.2273580  59.2320665
 106.2977414 101.0048762  58.4993858 106.3104645 101.2962275  59.9849266
 114.7813239 107.1147307  60.0385041 115.2945121 107.7477299  60.5406751
 115.4314463 106.5148503  59.6728401 106.0503249 103.2578041  53.2516550
 105.2140561 103.5952728  53.5725825 105.9108019 103.1227021  52.3143687
 108.0256330  98.1014829  57.9595734 107.3720742  97.7863846  57.3352349
 107.9836804  97.4790570  58.6855557 109.1367535 108.3834124  49.8749026
 108.2294596 108.1523378  50.0740175 109.6338567 107.5871743  50.0623008
 111.2594070 104.5896763  62.2843382 110.3416632 104.8111710  62.1265070
 111.6754214 104.6643073  61.4255089 112.0429118 105.9888178  57.4146062
 112.7900937 106.5009576  57.1053184 112.3120708 105.6672231  58.2750456
 110.3155768 108.4846719  54.3973016 109.4066987 108.2005752  54.4945486
 110.3450852 108.9045798  53.5376323 114.4907955 103.0245295  59.3964851
 113.7530712 102.5122681  59.7275094 114.7434729 102.5845676  58.5848128
 114.5919582  95.8021547  59.9906621 114.8978459  94.9418910  59.7032536
 115.3172187  96.3939167  59.7905615 100.8843939 106.2052233  58.3788219
 100.6868338 105.6121594  57.6539285 100.3290603 105.9004443  59.0964157
 108.8640662 106.0975340  60.4982812 108.9189272 105.1449176  60.4225288
 108.0531864 106.2534779  60.9824110 110.0131856 110.0255463  51.7361095
 109.5751286 109.3091322  51.2766732 110.7542297 110.2531578  51.1746186
 106.8033022 104.7152399  58.2573191 105.9900888 105.0146570  58.6638383
 107.2992016 104.3208088  58.9747673 112.4007234 105.1794224  67.0888085
 112.7556622 105.4065697  67.9482550 113.0479365 105.5112601  66.4665340
 106.2947097 102.2870755  63.8734426 106.9346476 102.1459514  63.1757389
 105.4624627 102.0005268  63.4973028 107.0707401 111.5873185  59.9869418
 107.8647999 111.0923506  59.7851993 106.3599093 111.0591049  59.6237124
 103.3790164 105.7316267  56.0629171 102.4487752 105.6700723  56.2799133
 103.4747636 105.2092220  55.2665812 103.2975713 102.2571080  58.6507412
 103.5582531 103.1716413  58.5416573 104.1192886 101.7895523  58.8004025
 104.7700639 103.6708837  65.8206237 105.4423692 103.4626199  65.1718886
 103.9430425 103.4730923  65.3811469 110.6726211 100.2970778  67.8371898
 110.0254126 100.9960728  67.7436374 111.4427226 100.7306922  68.2048146
 110.8490345 108.1351543  65.8968718 111.7782405 108.2862703  65.7237685
 110.4281375 108.2235564  65.0417364 109.6478677 112.1602207  63.6667255
 109.5089762 111.7920992  64.5393193 108.8593273 112.6749847  63.4951213
 111.1983892 111.5383810  61.0556093 110.8633725 111.4984580  61.9513743
 110.6987838 110.8728526  60.5826503 105.1728136 106.9451440  66.5808674
 105.0347934 106.2131679  67.1820213 106.0833059 106.8560340  66.2992862
 114.1343084 108.8839844  51.3293153 113.5172254 108.1586673  51.2326205
 113.6659572 109.6449205  50.9860227 107.8010437 106.6571399  66.0692354
 108.5110055 106.0164592  66.0278972 107.7579745 106.9084294  66.9918535
 106.5139371 103.6436617  67.8887993 105.9776728 103.1927356  68.5409590
 105.9256079 103.7782526  67.1458458 105.9241629 103.1025269  50.4514457
 105.0471096 102.9814070  50.0876704 106.3999383 102.3111347  50.1993346
  97.4443770 107.8902428  60.5455964  98.1314809 107.5764158  59.9576979
  97.2891898 108.7943793  60.2723215 102.2478492 102.7792625  64.9740988
 102.1636680 102.1718295  64.2391398 101.4261198 103.2701643  64.9750484
 112.4202206 101.2646189  60.3411183 112.9170905 100.5116151  60.0212253
 111.6489187 101.3010505  59.7754392 113.5031986 110.0217876  57.9149606
 112.5688265 110.1419338  57.7454311 113.6808655 109.1190343  57.6509616
 109.0037174 103.4063572  60.0682867 108.6334962 102.8534612  60.7563773
 109.4996267 102.8021705  59.5157867 116.8904538 105.8635195  58.4499640
 117.3564990 106.6963187  58.3759943 117.3412038 105.3980177  59.1544899
 106.8326373 113.8661067  67.1637885 107.5335832 114.4997550  67.3167280
 106.3621488 114.2075798  66.4033525 114.8621200  98.2315782  62.4890542
 113.9484280  98.4620009  62.6572749 115.2914302  98.3154226  63.3404574
 114.6327659 106.4205674  64.9890436 113.9799109 106.6681581  64.3342888
 115.0108039 105.6069812  64.6552913 110.6815232 107.1625485  71.4756473
 110.0055869 107.0619614  72.1458848 111.5042866 107.0064699  71.9392470
 102.4294091 113.3997422  64.0968988 103.0147528 112.6541110  64.2296892
 102.2318929 113.7101378  64.9805652 105.2832746 116.4348669  59.1131430
 104.6143121 116.9194797  58.6295470 105.1445616 116.6817889  60.0274809
  97.0211746 105.9703022  62.8173431  97.0595845 105.4366613  63.6110549
  96.5152039 105.4438227  62.1984408 104.4002508 100.8167562  66.3135973
 104.4643835 101.6782393  65.9013371 104.3369628 100.2041564  65.5808332
 103.8754781 102.8890695  69.9609008 104.5026819 102.5067772  70.5746532
 103.0182699 102.6704897  70.3264700 100.6520323 104.6967124  55.8927363
 100.9473764 103.7877802  55.8394416  99.7508359 104.6754863  55.5708365
 104.1814570 102.7723121  61.8754911 103.4601156 103.3859088  61.7362384
 104.9707826 103.3080885  61.7971557 106.9840884 100.1077547  68.1495563
 107.5075286 100.3539844  68.9121872 106.7653217 100.9397582  67.7298700
 102.3808165 102.3781222  56.0166688 102.0520871 101.4978601  55.8341794
 102.7347536 102.3228890  56.9043077 105.4949988 102.6654191  56.3842165
 105.8346061 103.1940113  55.6620774 105.9422109 103.0034598  57.1600732
 108.1893429 101.0491242  65.8345233 107.8490249 100.2499055  66.2365913
 107.4832435 101.3492953  65.2622067 108.8409901  98.1340555  64.2872556
 109.6635970  97.6601033  64.1651447 109.0847964  98.9131038  64.7871243
 107.4818135 101.1628813  54.5835458 108.2026498 101.5410066  54.0799175
 106.8583439 101.8817690  54.6870436 111.6249258 101.8673962  55.5193790
 111.8412872 102.7498600  55.2182619 111.1443325 101.4760175  54.7899432
 106.3648479 104.8259675  62.0964535 106.2193060 105.1399978  62.9888817
 105.8873683 105.4444576  61.5435434 108.2244862 101.8162223  62.1445425
 108.2106431 100.9203317  61.8077723 108.9417290 101.8232887  62.7783711
 110.0770993 102.2499563  64.1898552 109.8188771 103.1716634  64.1882882
 109.5456033 101.8529998  64.8799016 100.8394142 107.3665020  65.0352196
 100.2947610 108.1424828  65.1672471 101.7173491 107.7135824  64.8771318
 107.6281758 100.6976603  57.4132995 107.7497669  99.7693250  57.6123882
 107.3383801 100.7115289  56.5011310 110.4972949  98.3831514  60.5499715
 110.5194645  98.4470847  59.5951694 110.9141008  97.5436023  60.7440221
 101.6260163 106.4934916  67.9282353 100.8841900 106.6417551  68.5146984
 101.3052908 106.7543181  67.0649103 102.0716777 114.3800345  59.9592748
 102.8974797 114.0804116  59.5791391 101.7210829 113.6107967  60.4082536
 107.0398310 113.7326813  62.0290421 106.4178320 113.0697518  61.7292649
 107.7103177 113.7587945  61.3464069 100.2725382 112.2986671  60.9181681
  99.4357291 111.8708845  60.7365683 100.2449028 112.4919114  61.8552473
 107.1122838 102.2108601  71.6222927 107.1610993 103.0870724  71.2400697
 107.6545352 101.6685994  71.0494571 106.6011817 112.2830736  55.5048882
 106.7499938 112.9666201  54.8515555 107.4078261 112.2635826  56.0198338
 115.0079321 105.5873118  69.5316100 115.9089184 105.4479583  69.2400098
 115.0827295 105.7527573  70.4714277 109.3422126 102.9639973  68.3769286
 108.4725436 103.2573539  68.1051875 109.5781607 103.5480418  69.0976550
 117.4680944 107.1471747  66.9278873 117.9435065 107.3399393  66.1197724
 116.5446509 107.2030932  66.6822256 104.3564450 108.3095914  56.5109951
 104.1110492 107.4058244  56.7090161 104.5260365 108.3113064  55.5689429
 112.0461160  99.1819590  65.8934706 112.5643104  99.9180617  65.5681195
 111.6916293  99.4883583  66.7281466 103.6260098 104.0424271  54.0096112
 102.9329343 104.1168626  53.3536148 103.3811850 103.2784615  54.5317629
 112.2973754  95.6019873  61.4135603 112.5775508  94.9343062  62.0396030
 113.0824361  95.7948968  60.9010267 116.1682613 104.0237507  65.1607178
 117.1200035 104.1235604  65.1819402 115.9986063 103.2315775  65.6705262
 114.1896992 101.1093090  65.3466579 113.5946924 101.3898103  64.6513068
 113.9046689 101.5986991  66.1183320 110.4854021 106.1139679  50.3176682
 111.4313126 105.9845887  50.3865100 110.1068266 105.3754341  50.7946110
 118.7965179 104.0354670  64.3207761 118.2804228 103.2513126  64.1337690
 119.6805127 103.7073386  64.4854280 116.4575906  97.7795685  60.2803574
 116.2600727  97.4710774  61.1646906 117.0675611  98.5057324  60.4101503
 110.3692714 110.1657425  71.7777339 111.2895723 110.3436025  71.9717385
 110.3342297 109.2213471  71.6257038 108.6696938 104.0389656  50.2531567
 107.7628394 103.7422768  50.3294281 108.9472919 103.7419474  49.3865853
  99.5874879 105.3596019  60.7030613  99.2677663 104.5061327  60.4104987
  99.0408307 105.5744597  61.4588581 103.3654786 108.0758460  64.4200120
 103.5840796 109.0075568  64.4388154 103.7780560 107.7166435  65.2054924
 110.2859004  98.5826545  56.4075808 109.4759732  98.2373630  56.7831054
 110.9743421  98.2734089  56.9963420 112.2149552  97.6604592  58.0300105
 112.7680591  98.0800046  58.6890128 112.4519639  96.7340340  58.0723061
 108.2382652 103.6491666  73.8102869 108.1379379 104.5986023  73.7414960
 108.0204194 103.3209905  72.9378939 107.4395723 100.8976591  50.3943546
 108.3014887 101.2231489  50.6539364 107.6246067 100.1108087  49.8816612
  99.4563139 108.9798931  62.6723735  98.7626610 108.5652883  62.1593689
 100.2036130 109.0219467  62.0757154 115.5928359  99.7705117  57.5378769
 115.0127029 100.4289921  57.1556822 115.3264292  98.9482462  57.1266187
 114.0431926  99.1710175  59.7400090 114.5431704  99.2826710  58.9314408
 114.6867534  98.8671228  60.3800898 108.1013922 107.0788805  72.6267931
 107.6181003 107.8789165  72.8331820 108.1874861 107.0896750  71.6735375
 101.3699881 108.9117184  60.5489750 101.3470569 109.0104872  59.5971633
 101.6800518 109.7582335  60.8706916 104.0287259 110.9693339  64.6636364
 104.9830513 110.9377282  64.5966296 103.8299783 110.5083963  65.4786590
 104.6186641 109.5394456  67.2307162 105.4379530 110.0338534  67.2541999
 104.8923449 108.6226424  67.2024729 114.3753238 101.9305208  56.5935118
 113.4879093 102.2154858  56.3755312 114.7907227 101.7698971  55.7462394
 117.7267774 101.9551729  60.3089457 118.5028164 102.4448181  60.5814074
 117.0015908 102.3809783  60.7661326 120.1640332 102.6679348  61.3663397
 120.7584823 102.4275084  60.6556706 120.2366916 101.9486479  61.9936934
 102.3837488 116.5112959  61.6806562 102.2491956 115.7513360  61.1144560
 101.9669550 117.2353859  61.2135351 114.3494261 107.4459744  56.8085408
 114.2929463 107.9028295  55.9693040 114.9022604 106.6850428  56.6308250
 118.1599067 103.2349476  57.6335527 117.9036001 102.8346111  58.4643735
 117.5351935 103.9493270  57.5085666 115.0829041 108.6364525  54.1037937
 115.0277844 108.4708796  53.1626381 114.4575096 109.3440558  54.2600127
  99.8721556 103.8732589  67.9299359 100.5180419 103.3631543  68.4186584
  99.6638707 104.6101271  68.5042784 108.3925166  98.1372634  53.6823255
 108.3803836  99.0814474  53.8391526 109.2848588  97.9542779  53.3882716
 112.2077285  94.7315411  57.9369192 111.4409681  94.1773897  58.0825874
 112.6187990  94.8037279  58.7983344 104.2119047 101.0200206  72.0274373
 105.0750508 100.6637011  72.2377698 103.6384457 100.6814101  72.7149778
  44.9900850  -7.6951810  49.4943606  44.6519361  -7.8110746  48.6064140
  45.8590618  -8.0960645  49.4744612  40.8487665  -5.8416334  45.4840497
  40.2852530  -5.9326397  44.7156784  40.7340060  -6.6616429  45.9642989
  45.4720633  -6.5416959  55.4529811  45.4609273  -6.9364160  54.5810315
  45.6341272  -7.2750886  56.0463583  38.3952097  -4.3465142  48.3224717
  39.1873389  -4.6874318  47.9071016  38.6348747  -4.2370167  49.2426870
  46.4287224  -2.1745366  40.7954961  45.7775204  -1.5891286  40.4088975
  47.2231587  -1.6439171  40.8549999  40.3542851  -5.0856229  41.1942096
  41.1273727  -5.6327242  41.0554972  40.7068250  -4.2211980  41.4056557
  42.1927894  -3.7579847  54.4008995  41.9017760  -2.8534216  54.2855661
  42.8284878  -3.7163319  55.1153065  43.1184101  -6.3802998  50.9910355
  43.7147673  -6.6046976  50.2767318  43.1759072  -7.1218253  51.5935803
  42.6909129  -8.9263563  38.8260546  42.9434650  -9.4482042  38.0644009
  41.7533688  -9.0897417  38.9287229  47.9062489  -4.4854934  41.3323946
  47.2708322  -4.4120308  42.0444850  47.5759896  -3.8961335  40.6543025
  42.4105418  -7.0235457  41.0284921  42.2941676  -7.6990554  41.6966005
  42.5207678  -7.5103083  40.2117074  44.7536959  -7.5625310  44.7331610
  44.3895166  -8.0894689  45.4444531  45.6104075  -7.9526841  44.5598095
  47.1517779  -4.0718431  51.3958789  46.8518502  -3.1693392  51.2874596
  46.8068838  -4.3386248  52.2479942  40.6030260  -7.6204634  47.4295493
  39.6780757  -7.7528420  47.6373185  40.8514673  -6.8410415  47.9265436
  37.9639071  -7.9771361  48.2639282  38.0931452  -7.7236882  49.1778694
  37.2836523  -7.3843653  47.9443937  42.1338559   2.6925889  44.3629757
  42.0562588   3.6433714  44.4418237  41.5300202   2.3471762  45.0204683
  42.8802161  -7.3260792  56.5809090  43.6216845  -6.7875748  56.3043914
  42.1739146  -6.6994503  56.7380642  48.3557500  -5.1831652  55.1781252
  48.7640856  -5.6249241  54.4335884  47.6334762  -5.7579024  55.4315445
  48.6786315  -4.6230461  48.9333541  48.0495177  -4.4584747  48.2309609
  48.2911977  -4.2088851  49.7044505  52.5575547  -3.6876023  46.2877905
  51.8726585  -3.3077122  45.7374938  52.6419396  -3.0780696  47.0209852
  49.8126478  -6.0416064  52.8873248  50.0243374  -5.3984304  52.2107629
  49.7656227  -6.8753748  52.4195178  44.2314277  -4.8856053  46.1983626
  44.6952622  -4.6068350  45.4088248  43.9671075  -5.7872608  46.0156717
  41.1238358  -5.3384571  49.1363389  41.6939715  -4.9097303  48.4980874
  41.7146470  -5.6201987  49.8347575  43.1683163  -8.7632901  43.0073191
  43.8707206  -8.3111857  43.4747117  42.8363791  -9.4049082  43.6353084
  41.6163524 -10.1721144  57.3824400  40.9862185  -9.4904863  57.6159797
  41.5099612 -10.2838062  56.4377539  50.9272306  -3.1644109  51.0595605
  51.7489750  -3.5663921  50.7778287  50.9234709  -3.2675875  52.0111721
  44.6928910  -3.6160065  53.2156316  44.7573342  -3.1539658  54.0514488
  43.9839834  -4.2462700  53.3438626  44.4076928  -1.9491958  43.0835296
  44.2722602  -1.1040422  43.5120144  44.9486740  -1.7472680  42.3201230
  37.8606325  -4.4316520  43.6563221  38.3730845  -3.6373270  43.8068786
  38.5129038  -5.1290229  43.5896823  39.6701210  -1.3150764  45.7385974
  39.8467838  -0.3932799  45.5506958  40.4658043  -1.6292344  46.1680354
  46.0345404  -1.3268391  57.2135638  45.5909258  -2.1132013  56.8956543
  46.6962617  -1.1389241  56.5479529  40.7932525   0.2027410  51.7396317
  41.3439950   0.0744474  50.9673311  39.9544001   0.5022299  51.3891210
  48.1326642  -1.0465591  55.2417040  48.1145117  -0.2256710  54.7497309
  49.0546562  -1.1711516  55.4667181  44.5899696  -3.5321462  56.0840548
  45.1228033  -4.2933174  55.8539856  44.0613777  -3.8247810  56.8264702
  52.6953948  -5.6820430  42.0559798  51.9183391  -6.0209271  41.6114960
  53.3745429  -5.6767807  41.3814763  45.9552409  -4.4035469  43.5959360
  45.4273770  -5.1382710  43.2832597  45.4539912  -3.6260793  43.3499328
  50.9345255  -6.2086449  48.7126406  50.2768929  -5.5187188  48.8006535
  51.7385654  -5.8190017  49.0560393  44.1005009  -6.5855259  36.5994333
  43.1932071  -6.8166006  36.7985482  44.5976041  -7.3817640  36.7868315
  47.0073088   2.1242248  39.5191019  46.3334787   2.4273945  40.1275977
  47.3938910   2.9271328  39.1696476  45.2793242  -6.4842664  41.1218323
  44.3704462  -6.7683632  41.2190793  45.3088326  -6.0643586  40.2621630
  50.5112510  -2.8736075  44.8909491  50.0574837  -3.7145165  44.9474681
  49.8806477  -2.2374676  45.2284271  48.9545449  -1.0359578  45.8259309
  49.2468423  -0.4754521  45.1071674  49.4644070  -0.7431017  46.5812468
  44.9769330  -4.9433921  38.4606402  44.5388760  -5.6598062  38.0012039
  45.7179771  -4.7157806  37.8991493  43.9179074  -0.2579227  46.9152762
  43.8755253  -0.0318381  45.9861294  44.8341773  -0.4915852  47.0638563
  53.1211825  -4.6000197  49.5293992  53.5548331  -4.6924908  50.3777046
  53.8343405  -4.6242696  48.8914008  42.0344875  -3.3816198  46.7114725
  42.8285474  -3.8765878  46.5097300  41.3236567  -3.9098335  46.3482430
  46.8539720  -0.9998103  51.0627092  46.9076742  -0.4307166  51.8304808
  45.9854501  -0.8296217  50.6981129  53.9827374  -4.5576496  52.0626877
  54.1763264  -3.6530685  52.3086152  53.8827992  -5.0169077  52.8965462
  49.0442483  -4.4069753  57.6367758  48.8927989  -4.6359202  56.7197841
  49.0347162  -3.4499152  57.6499103  45.8127819  -6.8337840  52.6214024
  46.7419879  -6.6826681  52.4482992  45.3918849  -6.7453820  51.7662671
  44.6116151  -2.8087176  50.3912562  44.4727237  -3.1768392  51.2638500
  43.8230747  -2.2939537  50.2196520  45.2064303   2.2921920  41.7338098
  45.3816059   1.8209964  42.5483721  44.5197091   2.9187687  41.9619359
  46.1621366  -3.4305573  47.7801400  45.8271199  -3.4704803  48.6759049
  45.6625312  -4.0960857  47.3071810  40.1365610  -8.0237943  53.3053981
  39.9985408  -8.7557705  53.9065520  41.0470534  -8.1129043  53.0238169
  49.0980558  -6.0849539  38.0538459  48.4809729  -6.8102711  37.9571512
  48.6297046  -5.3240179  37.7105534  42.7647911  -8.3117984  52.7937660
  43.4747529  -8.9524792  52.7524279  42.7217219  -8.0605089  53.7163841
  50.7534690  -1.3750631  55.7144240  50.6947236  -2.0591411  55.0474823
  51.1554208  -0.6331641  55.2624866  39.7725388   5.4411283  48.5077959
  40.0121987   6.0729807  49.1856977  38.9294585   5.0899323  48.7943318
  50.7552097  -3.4111047  53.9458219  49.8678876  -3.7485125  54.0684618
  51.3250648  -4.1428016  54.1826985  44.2853250   1.2490406  50.9119463
  44.2123422   2.0545377  51.4238767  43.8430643   1.4482371  50.0867484
  44.0743030   0.4862176  44.4222284  43.2910552   1.0283856  44.5160509
  44.7735775   1.0036155  44.8216525  46.7451934   1.1477240  53.0677621
  47.4579906   1.7824704  52.9953523  46.2541962   1.2441106  52.2517623
  48.4669461  -4.9471508  44.6394913  47.5325739  -4.8270045  44.4699617
  48.6446129  -5.8499041  44.3754923  41.7963847  -1.1028317  53.8883192
  42.4973307  -0.4691834  54.0412586  41.3258962  -0.7613585  53.1278831
  49.9218243  -2.7610367  42.1731099  50.1978087  -2.8753773  43.0824973
  49.0522742  -3.1592882  42.1343272  46.5572307   1.4875984  45.8163913
  46.7394702   0.6697640  46.2791665  47.3805293   1.7043676  45.3788803
  46.8914473   0.4144169  43.0778961  47.4202239  -0.0963377  42.4649123
  47.1542692   0.0986699  43.9424494  45.6452706  -7.8063898  58.2001779
  44.9693343  -7.9069769  58.8704155  46.4680340  -7.9624685  58.6637777
  37.3931565  -1.5691962  50.8214295  37.9785002  -2.3148274  50.9542199
  37.1956404  -1.2588005  51.7050959  40.2470221   1.4659286  45.8376737
  39.5780596   1.9505413  45.3540777  40.1083090   1.7128506  46.7520116
  44.3875489   3.5003029  52.4359395  44.9393797   3.6634651  53.2008481
  44.7281683   4.0907467  51.7639420  49.2386363  -1.6735713  58.2908050
  49.7826267  -1.0605755  57.7963005  48.6573208  -1.1156135  58.8075063
  47.5243876   1.4485005  49.4223078  47.3995016   0.6474744  48.9134023
  48.1822968   1.9431198  48.9337048  49.5878785  -0.7505975  51.0502628
  48.6409120  -0.8700624  50.9780954  49.9361558  -1.6383477  51.1328889
  46.5925218  -0.9553259  47.2506980  46.4450181  -1.8836552  47.4314550
  47.4178712  -0.9333168  46.7664055  50.1959340  -0.1324700  48.3371853
  51.1205887  -0.3381839  48.1996304  50.0274643  -0.3808299  49.2461194
  41.3285954 -10.1429708  48.8209842  41.1830534  -9.8289405  49.7134123
  40.8511157  -9.5244808  48.2680740  49.9854656   0.3860967  43.6933944
  50.1591534  -0.1792610  42.9407797  50.4783547   1.1861862  43.5113434
  50.9729829  -0.2972269  40.7930842  51.6680733   0.3234424  41.0118157
  51.3152979  -1.1476917  41.0683220  52.8721252  -2.8472563  42.3218173
  53.3972576  -2.5085290  41.5967493  52.7843604  -3.7825548  42.1381308
  44.5341300   1.0661511  54.4508050  44.8428427   0.8210657  55.3230749
  45.3316782   1.2708149  53.9626920  44.5561912   3.2199420  46.6813426
  44.1166903   2.7275799  47.3746283  45.3070029   2.6772388  46.4405502
  37.0354251  -0.5889039  46.6838054  37.8612271  -0.8885267  46.3036698
  36.6848303  -1.3581416  47.1327843  42.0035785  -1.2362571  48.7535728
  41.3815794  -1.8991866  48.4537956  42.6740652  -1.2101439  48.0709376
  35.2362857  -2.6702712  47.6426988  34.3994765  -3.0980538  47.4610989
  35.2086502  -2.4770269  48.5797779  52.5615158  -2.2139659  57.6269371
  51.7710702  -2.2315521  57.0873871  52.3248512  -1.6751366  58.3818408
  52.6813033  -5.3647193  54.9402100  52.7311038  -5.5297186  55.8817622
  52.5726956  -6.2319934  54.5499980  41.5649292  -2.6858647  42.2294189
  41.7137412  -2.0023183  41.5760861  42.3715735  -2.7053557  42.7443644
  54.1831230  -2.9450251  55.1844121  53.8916038  -2.5820271  56.0207582
  53.5703361  -3.6583243  55.0057453  39.3201925  -6.6593470  43.2355257
  39.0747966  -7.5631140  43.4335468  39.4897839  -6.6576319  42.2934735
  45.0644697  -0.1910517  39.7005936  44.4918664   0.4279670  39.2476408
  45.6377491   0.3588845  40.2345858  48.2841957   0.0926633  40.8314518
  49.2172630   0.0272195  41.0347394  48.1965170   0.9282900  40.3729051
  50.9129974  -0.5907496  37.7918466  50.8343605  -0.9247633  38.6854224
  51.7339640  -0.0985728  37.7909938  45.3330188  -4.8031958  58.5022645
  46.2533198  -4.6253359  58.6962692  45.2979771  -5.7475913  58.3502345
  38.3292261  -6.8930923  51.1445427  38.5478270  -5.9613815  51.1633460
  38.7418034  -7.2522949  51.9300230  43.0651396  -7.8900579  59.3513237
  42.5818478  -7.0900219  59.5577126  43.1512335  -7.8792634  58.3980681
  36.3337356  -6.0572199  47.2735057  36.3108044  -5.9584512  46.3216940
  36.6437992  -5.2107048  47.5952223  38.9924734  -3.9996044  51.3881671
  39.9467987  -4.0312102  51.3211603  38.7937257  -4.4605420  52.2031897
  39.5824116  -5.4294928  53.9552469  40.4017005  -4.9350849  53.9787306
  39.8560923  -6.3462960  53.9270036  37.3474962   1.5423575  48.4051869
  37.2129430   0.7823976  47.8389867  36.9307025   2.2664475  47.9380658
  48.4833925  -3.2739501  37.4128444  49.1869775  -3.0689498  38.0286100
  47.7596574  -2.7062739  37.6777528  40.5044088   2.4392893  48.6170311
  40.3876472   3.3838325  48.5149002  39.6836534   2.1366454  49.0056111
  50.3920623  -2.8356972  39.4626904  51.2266227  -3.2675773  39.2804379
  50.2304966  -3.0074958  40.3903799  50.0466515  -6.3324858  40.8283243
  49.9915319  -6.4980587  39.8871688  49.4212570  -5.6248826  40.9845433
  47.3612422  -4.0275947  60.1536806  48.2303582  -3.8535294  59.7923441
  46.8819174  -3.2081530  60.0312536  41.5298602   3.0921154  51.8326240
  42.4325849   3.1244765  52.1492735  41.3035972   2.1621605  51.8472576
  43.2852204   1.8452141  48.4936319  42.3347835   1.8454003  48.3800691
  43.5884690   1.0984876  47.9772353  59.0204898   7.6812679  49.5582081
  59.6583308   7.5619427  48.8545421  58.9025741   8.6293523  49.6170033
  55.8294604   7.6340107  49.4943606  55.4913116   7.5181172  48.6064140
  56.6984372   7.2331273  49.4744612  51.6881420   9.4875584  45.4840497
  51.1246285   9.3965521  44.7156784  51.5733815   8.6675488  45.9642989
  56.3114387   8.7874959  55.4529811  56.3003028   8.3927757  54.5810315
  56.4735027   8.0541032  56.0463583  49.2345852  10.9826775  48.3224717
  50.0267144  10.6417600  47.9071016  49.4742502  11.0921751  49.2426870
  57.2680979  13.1546552  40.7954961  56.6168958  13.7400632  40.4088975
  58.0625341  13.6852746  40.8549999  51.1936606  10.2435689  41.1942096
  51.9667482   9.6964676  41.0554972  51.5462005  11.1079938  41.4056557
  53.0321648  11.5712071  54.4008995  52.7411514  12.4757702  54.2855661
  53.6678633  11.6128599  55.1153065  53.9577855   8.9488919  50.9910355
  54.5541427   8.7244942  50.2767318  54.0152827   8.2073665  51.5935803
  53.5302883   6.4028355  38.8260546  53.7828404   5.8809876  38.0644009
  52.5927443   6.2394500  38.9287229  58.5746166   5.4064133  46.6335289
  59.3609256   4.9883556  46.2825706  58.8384871   6.3110225  46.8016937
  58.7456244  10.8436983  41.3323946  58.1102077  10.9171610  42.0444850
  58.4153650  11.4330582  40.6543025  63.9754593   5.3439366  47.5368267
  64.7079765   4.7738583  47.7706097  63.2193949   4.9560967  47.9774773
  53.2499172   8.3056461  41.0284921  53.1335430   7.6301364  41.6966005
  53.3601432   7.8188835  40.2117074  55.5930713   7.7666608  44.7331610
  55.2288920   7.2397229  45.4444531  56.4497829   7.3765077  44.5598095
  61.4980014  -0.9439060  51.9962876  61.1663339  -0.0743649  51.7724091
  60.9025627  -1.2602776  52.6756906  55.2336200   2.7956508  39.7292958
  55.4010602   3.6636744  40.0963429  55.0433369   2.9583789  38.8054248
  57.9911533  11.2573486  51.3958789  57.6912256  12.1598525  51.2874596
  57.6462593  10.9905670  52.2479942  51.4424015   7.7087283  47.4295493
  50.5174511   7.5763497  47.6373185  51.6908428   8.4881503  47.9265436
  61.3908677   3.7756027  49.0756226  60.4825554   3.7071435  48.7814987
  61.3396273   4.2527972  49.9038052  55.2125421   5.2514165  40.7139625
  55.0925046   5.6971216  41.5525106  54.5178009   5.5999483  40.1553163
  48.8032826   7.3520557  48.2639282  48.9325207   7.6055036  49.1778694
  48.1230277   7.9448265  47.9443937  52.9732313  18.0217807  44.3629757
  52.8956343  18.9725632  44.4418237  52.3693957  17.6763679  45.0204683
  55.4649543   5.1945672  57.0191123  54.6882877   5.7539592  57.0093988
  56.1040106   5.6802455  57.5405994  63.2570323   1.9772465  50.8534100
  62.6144704   2.2704998  50.2073895  62.7525252   1.8625385  51.6587297
  60.9110487   5.7235638  41.5419959  61.8228343   5.9563025  41.3667657
  60.4020134   6.3072682  40.9795038  53.7195915   8.0031126  56.5809090
  54.4610600   8.5416170  56.3043914  53.0132901   8.6297414  56.7380642
  59.1951255  10.1460266  55.1781252  59.6034611   9.7042677  54.4335884
  58.4728516   9.5712894  55.4315445  55.5482325   5.0832873  52.5514809
  56.3943520   5.5072286  52.6949458  55.4880963   4.4266497  53.2453372
  59.5180069  10.7061457  48.9333541  58.8888932  10.8707171  48.2309609
  59.1305732  11.1203066  49.7044505  63.3969301  11.6415895  46.2877905
  62.7120340  12.0214796  45.7374938  63.4813151  12.2511221  47.0209852
  58.6981770   2.7437241  54.2095982  58.4542702   3.4979302  53.6730258
  58.9741701   3.1222589  55.0443230  60.6520233   9.2875854  52.8873248
  60.8637128   9.9307613  52.2107629  60.6049981   8.4538170  52.4195178
  58.2546462   1.8993674  49.7909820  57.3930941   2.1974928  50.0826558
  58.2808897   2.1164073  48.8590853  55.0708031  10.4435865  46.1983626
  55.5346377  10.7223568  45.4088248  54.8064829   9.5419309  46.0156717
  51.9632112   9.9907346  49.1363389  52.5333469  10.4194615  48.4980874
  52.5540224   9.7089931  49.8347575  54.0076917   6.5659017  43.0073191
  54.7100961   7.0180061  43.4747117  53.6757546   5.9242836  43.6353084
  52.4557279   5.1570774  57.3824400  51.8255940   5.8387055  57.6159797
  52.3493367   5.0453855  56.4377539  47.7502251   4.8242570  48.3090325
  46.9601305   5.0800098  47.8330435  48.2413499   5.6390908  48.4142365
  61.7666061  12.1647809  51.0595605  62.5883505  11.7627996  50.7778287
  61.7628464  12.0616043  52.0111721  49.7016997   5.1887149  45.2673801
  48.9048160   5.3005843  45.7857297  49.4742589   5.5273801  44.4014692
  55.5322664  11.7131852  53.2156316  55.5967097  12.1752260  54.0514488
  54.8233588  11.0829217  53.3438626  46.0339954   5.0773060  50.7405315
  46.2847993   5.9620070  51.0062891  46.5699503   4.8977662  49.9680407
  69.8572054   8.5086557  47.4080577  69.1035762   7.9393956  47.2524581
  69.9919595   8.4749222  48.3551212  55.2470682  13.3799960  43.0835296
  55.1116357  14.2251496  43.5120144  55.7880495  13.5819237  42.3201230
  51.7338022  -0.5408460  59.7449651  51.3404967  -1.0942262  60.4197296
  52.5504162  -0.2297882  60.1356169  48.7000079  10.8975398  43.6563221
  49.2124600  11.6918648  43.8068786  49.3522792  10.2001688  43.5896823
  50.5094964  14.0141154  45.7385974  50.6861592  14.9359119  45.5506958
  51.3051798  13.6999573  46.1680354  54.6505983   0.8749419  57.3369908
  55.3915696   1.4756572  57.2574370  54.8823905   0.1327057  56.7787951
  49.7947321   6.0605786  55.6148138  49.6800836   5.1591043  55.9155237
  48.9391838   6.3069483  55.2632954  56.8739158  14.0023526  57.2135638
  56.4303013  13.2159905  56.8956543  57.5356372  14.1902677  56.5479529
  51.6326280  15.5319328  51.7396317  52.1833705  15.4036391  50.9673311
  50.7937755  15.8314217  51.3891210  58.9720396  14.2826326  55.2417040
  58.9538872  15.1035207  54.7497309  59.8940317  14.1580401  55.4667181
  55.4293451  11.7970456  56.0840548  55.9621787  11.0358744  55.8539856
  54.9007532  11.5044108  56.8264702  58.5963146  -3.0969478  51.6134190
  58.2527415  -2.2067837  51.5373300  58.9642108  -3.2867821  50.7503775
  46.6648996   9.2264052  44.4322792  47.5024218   9.6361060  44.2156500
  46.8427264   8.2863494  44.4022986  58.5613428   6.8939133  40.1206625
  58.0460052   7.6643737  40.3595012  58.2890737   6.2204269  40.7439686
  56.1460539   1.7388834  45.1791863  55.2902136   1.3495684  44.9997502
  56.5587491   1.8180794  44.3191649  57.6759686  -0.7264823  49.5783423
  57.1724482  -0.7634688  48.7651228  57.9690293   0.1827920  49.6380080
  53.9202572  -0.6426093  48.5849605  54.7855569  -0.8383285  48.2255494
  53.9880081  -0.8715742  49.5118961  63.5347702   9.6471487  42.0559798
  62.7577145   9.3082647  41.6114960  64.2139183   9.6524111  41.3814763
  58.3499731   4.7666225  41.9466406  58.0449867   5.0812374  42.7976549
  59.3030174   4.8447645  41.9893739  56.7946163  10.9256448  43.5959360
  56.2667525  10.1909208  43.2832597  56.2933666  11.7031125  43.3499328
  61.7739009   9.1205469  48.7126406  61.1162684   9.8104730  48.8006535
  62.5779409   9.5101901  49.0560393  51.5264891   1.5876114  45.9565971
  52.1008643   1.3651296  45.2239164  52.1135873   1.6564809  46.7094573
  60.5844468   7.4749841  46.7630348  61.0976350   8.1079833  47.2652058
  61.2345692   6.8751037  46.3973708  51.8534478   3.6180576  39.9761857
  51.0171790   3.9555262  40.2971131  51.7139248   3.4829555  39.0388994
  53.8287559  -1.5382637  44.6841041  53.1751971  -1.8533619  44.0597656
  53.7868033  -2.1606896  45.4100864  54.9398763   8.7436658  36.5994333
  54.0325825   8.5125912  36.7985482  55.4369795   7.9474278  36.7868315
  57.8466842  17.4534166  39.5191019  57.1728541  17.7565862  40.1275977
  58.2332664  18.2563246  39.1696476  57.0625299   4.9499297  49.0088689
  56.1447860   5.1714244  48.8510377  57.4785443   5.0245607  48.1500396
  57.8460347   6.3490713  44.1391369  58.5932166   6.8612110  43.8298491
  58.1151936   6.0274765  44.9995762  56.1186997   8.8449253  41.1218323
  55.2098216   8.5608286  41.2190793  56.1482081   9.2648332  40.2621630
  61.3506264  12.4555843  44.8909491  60.8968591  11.6146753  44.9474681
  60.7200231  13.0917241  45.2284271  60.2939184   3.3847829  46.1210158
  59.5561941   2.8725215  46.4520401  60.5465957   2.9448210  45.3093435
  59.7939204  14.2932340  45.8259309  60.0862178  14.8537397  45.1071674
  60.3037824  14.5860901  46.5812468  46.6875167   6.5654767  45.1033525
  46.4899567   5.9724128  44.3784592  46.1321831   6.2606978  45.8209464
  54.6671891   6.4577874  47.2228118  54.7220501   5.5051710  47.1470595
  53.8563093   6.6137313  47.7069417  55.8163085  10.3857997  38.4606402
  55.3782515   9.6693856  38.0012039  56.5573526  10.6134112  37.8991493
  52.6064251   5.0754934  44.9818497  51.7932116   5.3749104  45.3883689
  53.1023245   4.6810622  45.6992980  54.7572829  15.0712691  46.9152762
  54.7149008  15.2973537  45.9861294  55.6735528  14.8376065  47.0638563
  58.2038463   5.5396758  53.8133391  58.5587850   5.7668231  54.6727857
  58.8510594   5.8715135  53.1910647  63.9336200   8.6615194  44.5182720
  63.7954098   8.8516790  43.5903909  63.5772418   9.4234577  44.9750771
  52.0978326   2.6473289  50.5979732  52.7377705   2.5062048  49.9002696
  51.2655856   2.3607803  50.2218334  63.9605579  10.7291721  49.5293992
  64.3942086  10.6367010  50.3777046  64.6737160  10.7049222  48.8914008
  52.8738630  11.9475720  46.7114725  53.6679228  11.4526040  46.5097300
  52.1630322  11.4193583  46.3482430  57.6933474  14.3293815  51.0627092
  57.7470496  14.8984751  51.8304808  56.8248255  14.4995700  50.6981129
  49.1821393   6.0918801  42.7874477  48.2518981   6.0303257  43.0044440
  49.2778865   5.5694754  41.9911119  49.1006942   2.6173614  45.3752719
  49.3613759   3.5318947  45.2661880  49.9224114   2.1498057  45.5249332
  50.5731867   4.0311371  52.5451544  51.2454921   3.8228733  51.8964193
  49.7461654   3.8333457  52.1056776  64.8221129  10.7715422  52.0626877
  65.0157019  11.6761232  52.3086152  64.7221747  10.3122841  52.8965462
  56.4757439   0.6573312  54.5617204  55.8285354   1.3563262  54.4681681
  57.2458455   1.0909456  54.9293453  59.8836237  10.9222164  57.6367758
  59.7321744  10.6932716  56.7197841  59.8740917  11.8792766  57.6499103
  56.6521574   8.4954077  52.6214024  57.5813634   8.6465237  52.4482992
  56.2312604   8.5838098  51.7662671  55.4509906  12.5204742  50.3912562
  55.3120991  12.1523526  51.2638500  54.6624502  13.0352381  50.2196520
  56.0458058  17.6213838  41.7338098  56.2209813  17.1501881  42.5483721
  55.3590846  18.2479604  41.9619359  57.0015121  11.8986344  47.7801400
  56.6664953  11.8587114  48.6759049  56.5019066  11.2331060  47.3071810
  50.9759365   7.3053974  53.3053981  50.8379163   6.5734213  53.9065520
  51.8864288   7.2162874  53.0238169  59.9374312   9.2442379  38.0538459
  59.3203483   8.5189207  37.9571512  59.4690801  10.0051739  37.7105534
  53.6041665   7.0173934  52.7937660  54.3141284   6.3767126  52.7524279
  53.5610973   7.2686829  53.7163841  61.5928444  13.9541287  55.7144240
  61.5340990  13.2700507  55.0474823  61.9947962  14.6960277  55.2624866
  52.3170599   4.0039152  54.6133300  51.7807956   3.5529890  55.2654896
  51.7287308   4.1385060  53.8703764  50.6119143  20.7703201  48.5077959
  50.8515741  21.4021725  49.1856977  49.7688339  20.4191241  48.7943318
  51.7272858   3.4627803  37.1759764  50.8502325   3.3416604  36.8122010
  52.2030611   2.6713881  36.9238652  61.5945851  11.9180871  53.9458219
  60.7072630  11.5806793  54.0684618  62.1644402  11.1863902  54.1826985
  43.2474998   8.2504963  47.2701271  43.9346038   7.9366693  46.6822286
  43.0923127   9.1546327  46.9968522  48.0509721   3.1395159  51.6986294
  47.9667909   2.5320829  50.9636704  47.2292427   3.6304178  51.6995791
  55.1247005  16.5782323  50.9119463  55.0517176  17.3837295  51.4238767
  54.6824398  16.7774289  50.0867484  54.9136784  15.8154093  44.4222284
  54.1304306  16.3575773  44.5160509  55.6129529  16.3328073  44.8216525
  58.2233434   1.6248723  47.0656489  58.7202134   0.8718685  46.7457560
  57.4520416   1.6613039  46.4999699  66.0763192   7.3289088  48.7074781
  66.0653068   8.2113804  48.3368714  65.2080571   6.9760639  48.5129318
  57.5845688  16.4769157  53.0677621  58.2973660  17.1116622  52.9953523
  57.0935717  16.5733023  52.2517623  59.3063215  10.3820410  44.6394913
  58.3719494  10.5021872  44.4699617  59.4839884   9.4792877  44.3754923
  54.8068403   3.7666106  46.7928174  54.4366191   3.2137146  47.4809080
  55.3027496   3.1624239  46.2403174  62.6935766   6.2237729  45.1744947
  63.1596219   7.0565721  45.1005250  63.1443267   5.7582711  45.8790205
  52.6357602  14.2263601  53.8883192  53.3367061  14.8600084  54.0412586
  52.1652717  14.5678332  53.1278831  60.7611998  12.5681551  42.1731099
  61.0371841  12.4538145  43.0824973  59.8916496  12.1699035  42.1343272
  60.6652429  -1.4081684  49.2135848  59.7515509  -1.1777457  49.3818055
  61.0945531  -1.3243240  50.0649881  60.4358888   6.7808208  51.7135742
  59.7830338   7.0284116  51.0588195  60.8139268   5.9672346  51.3798220
  57.3966062  16.8167901  45.8163913  57.5788456  15.9989557  46.2791665
  58.2199048  17.0335594  45.3788803  57.7308227  15.7436087  43.0778961
  58.2595994  15.2328541  42.4649123  57.9936447  15.4278617  43.9424494
  56.4846461   7.5228019  58.2001779  55.8087098   7.4222149  58.8704155
  57.3074095   7.3667233  58.6637777  48.2325320  13.7599956  50.8214295
  48.8178757  13.0143644  50.9542199  48.0350158  14.0703913  51.7050959
  51.0863975  16.7951203  45.8376737  50.4174350  17.2797331  45.3540777
  50.9476845  17.0420424  46.7520116  42.8242975   6.3305556  49.5418738
  42.8627074   5.7969147  50.3355856  42.3183267   5.8040762  48.9229715
  55.2269244  18.8294947  52.4359395  55.7787552  18.9926568  53.2008481
  55.5675437  19.4199385  51.7639420  50.2033737   1.1770097  53.0381280
  50.2675063   2.0384927  52.6258678  50.1400857   0.5644098  52.3053639
  49.6786009   3.2493229  56.6854314  50.3058048   2.8670306  57.2991839
  48.8213928   3.0307431  57.0510007  60.0780118  13.6556204  58.2908050
  60.6220022  14.2686163  57.7963005  59.4966963  14.2135783  58.8075063
  46.4551552   5.0569658  42.6172669  46.7504993   4.1480337  42.5639723
  45.5539588   5.0357398  42.2953672  58.3637631  16.7776922  49.4223078
  58.2388770  15.9766662  48.9134023  59.0216722  17.2723116  48.9337048
  49.9845799   3.1325655  48.6000218  49.2632385   3.7461622  48.4607691
  50.7739055   3.6683420  48.5216864  60.4272539  14.5785942  51.0502628
  59.4802875  14.4591294  50.9780954  60.7755312  13.6908440  51.1328889
  52.7872113   0.4680081  54.8740870  53.3106514   0.7142378  55.6367179
  52.5684446   1.3000116  54.4544007  48.1839394   2.7383756  42.7411994
  47.8552100   1.8581135  42.5587100  48.5378764   2.6831425  43.6288384
  57.4318973  14.3738659  47.2506980  57.2843935  13.4455366  47.4314550
  58.2572466  14.3958749  46.7664055  51.2981217   3.0256726  43.1087472
  51.6377289   3.5542647  42.3866080  51.7453337   3.3637132  43.8846039
  61.0353094  15.1967217  48.3371853  61.9599642  14.9910079  48.1996304
  60.8668398  14.9483618  49.2461194  53.9924658   1.4093776  52.5590540
  53.6521478   0.6101589  52.9611220  53.2863664   1.7095487  51.9867373
  54.6441129  -1.5056911  51.0117863  55.4667199  -1.9796433  50.8896753
  54.8879193  -0.7266427  51.5116549  53.2849364   1.5231347  41.3080765
  54.0057726   1.9012600  40.8044482  52.6614668   2.2420224  41.4115743
  57.4280487   2.2276496  42.2439097  57.6444101   3.1101134  41.9427925
  56.9474554   1.8362710  41.5144739  52.1679708   5.1862209  48.8209842
  52.0224289   5.5002512  49.7134123  51.6904912   5.8047110  48.2680740
  54.0276091   2.1764757  48.8690731  54.0137660   1.2805851  48.5323029
  54.7448519   2.1835421  49.5029017  55.8802222   2.6102098  50.9143859
  55.6220000   3.5319168  50.9128189  55.3487262   2.2132532  51.6044323
  60.8248411  15.7152885  43.6933944  60.9985288  15.1499307  42.9407797
  61.3177302  16.5153780  43.5113434  46.6425370   7.7267554  51.7597503
  46.0978838   8.5027362  51.8917777  47.5204720   8.0738358  51.6016624
  53.4312987   1.0579138  44.1378301  53.5528898   0.1295784  44.3369189
  53.1415029   1.0717824  43.2256617  56.3004177  -1.2565952  47.2745021
  56.3225874  -1.1926619  46.3197001  56.7172236  -2.0961443  47.4685527
  66.6787802   8.4789308  45.3124244  67.1218948   7.7296633  44.9143367
  65.8014312   8.4699444  44.9297976  61.8123583  15.0319649  40.7930842
  62.5074488  15.6526342  41.0118157  62.1546733  14.1815000  41.0683220
  47.4291392   6.8537450  54.6527660  46.6873128   7.0020085  55.2392290
  47.1084137   7.1145716  53.7894409  63.7115006  12.4819355  42.3218173
  64.2366330  12.8206627  41.5967493  63.6237359  11.5466370  42.1381308
  55.3735055  16.3953428  54.4508050  55.6822181  16.1502575  55.3230749
  56.1710537  16.6000067  53.9626920  55.3955667  18.5491338  46.6813426
  54.9560657  18.0567717  47.3746283  56.1463784  18.0064306  46.4405502
  47.8748006  14.7402879  46.6838054  48.7006026  14.4406651  46.3036698
  47.5242058  13.9710501  47.1327843  52.8429539  14.0929347  48.7535728
  52.2209548  13.4300052  48.4537956  53.5134406  14.1190479  48.0709376
  46.0756611  12.6589205  47.6426988  45.2388519  12.2311380  47.4610989
  46.0480256  12.8521649  48.5797779  52.9154067   2.5711135  58.3468234
  52.9642222   3.4473258  57.9646004  53.4576581   2.0288528  57.7739877
  63.4008912  13.1152258  57.6269371  62.6104456  13.0976397  57.0873871
  63.1642267  13.6540552  58.3818408  63.5206787   9.9644725  54.9402100
  63.5704792   9.7994732  55.8817622  63.4120711   9.0971984  54.5499980
  52.4043046  12.6433270  42.2294189  52.5531166  13.3268735  41.5760861
  53.2109489  12.6238360  42.7443644  60.8110550   5.9475653  56.2561406
  61.7120412   5.8082118  55.9645404  60.8858524   6.1130108  57.1959584
  55.1453355   3.3242507  55.1014593  54.2756664   3.6176074  54.8297181
  55.3812835   3.9082952  55.8221856  65.0224984  12.3841666  55.1844121
  64.7309792  12.7471647  56.0207582  64.4097115  11.6708674  55.0057453
  66.2220666   9.9494546  47.7046691  67.0567558  10.3884350  47.8684252
  66.3579795   9.4733199  46.8854937  63.2712172   7.5074281  53.6524179
  63.7466294   7.7001927  52.8443031  62.3477738   7.5633467  53.4067563
  50.1595679   8.6698448  43.2355257  49.9141721   7.7660778  43.4335468
  50.3291594   8.6715598  42.2934735  57.8492389  -0.4577876  52.6180013
  58.3674333   0.2783151  52.2926502  57.4947522  -0.1513882  53.4526772
  49.4291327   4.4026806  40.7341419  48.7360571   4.4771161  40.0781455
  49.1843078   3.6387149  41.2562936  55.9038452  15.1381401  39.7005936
  55.3312419  15.7571588  39.2476408  56.4771245  15.6880763  40.2345858
  61.9713841   4.3840041  51.8852485  62.9231264   4.4838139  51.9064709
  61.8017292   3.5918309  52.3950569  59.9928221   1.4695624  52.0711886
  59.3978153   1.7500637  51.3758374  59.7077918   1.9589525  52.8428627
  59.1235711  15.4218551  40.8314518  60.0566384  15.3564113  41.0347394
  59.0358924  16.2574818  40.3729051  61.7523728  14.7384421  37.7918466
  61.6737360  14.4044285  38.6854224  62.5733395  15.2306189  37.7909938
  64.4501919   7.6046161  50.9994784  64.4178239   6.6662161  51.1854468
  65.0602543   7.6830197  50.2660609  56.2885250   6.4742214  37.0421988
  57.2344355   6.3448422  37.1110406  55.9099495   5.7356875  37.5191417
  64.5996408   4.3957204  51.0453068  64.0835456   3.6115661  50.8582996
  65.4836356   4.0675921  51.2099587  62.2607135  -1.8601780  47.0048880
  62.0631956  -2.1686692  47.8892212  62.8706840  -1.1340141  47.1346810
  70.2678469   8.6662167  50.1400821  70.9981858   8.4047456  50.7008525
  69.6585415   7.9290889  50.1802889  68.3493766   6.8070030  50.7375272
  67.6226930   6.6725995  50.1291764  67.9341053   7.1146859  51.5431990
  56.1723943  10.5259960  58.5022645  57.0926952  10.7038559  58.6962692
  56.1373526   9.5816005  58.3502345  54.4728167   4.3992190  36.9776874
  53.5659623   4.1025303  37.0539587  54.7504148   4.1022008  36.1111160
  45.3906108   5.7198553  47.4275920  45.0708892   4.8663862  47.1350294
  44.8439536   5.9347132  48.1833887  49.1686015   8.4360994  51.1445427
  49.3872025   9.3678102  51.1633460  49.5811789   8.0768969  51.9300230
  56.0890233  -1.0570920  43.1321115  55.2790961  -1.4023835  43.5076361
  56.7774650  -1.3663377  43.7208727  58.0180781  -1.9792874  44.7545412
  58.5711820  -1.5597420  45.4135435  58.2550868  -2.9057125  44.7968368
  54.0413880   4.0094200  60.5348176  53.9410607   4.9588557  60.4660267
  53.8235423   3.6812439  59.6624246  53.2426952   1.2579125  37.1188853
  54.1046116   1.5834024  37.3784670  53.4277296   0.4710621  36.6061919
  45.2594368   9.3401465  49.3969042  44.5657839   8.9255418  48.8838996
  46.0067359   9.3822001  48.8002461  61.3959588   0.1307652  44.2624076
  60.8158257   0.7892456  43.8802128  61.1295521  -0.6915004  43.8511493
  59.8463155  -0.4687291  46.4645396  60.3462933  -0.3570756  45.6559715
  60.4898763  -0.7726238  47.1046205  53.9045151   7.4391339  59.3513237
  53.4212232   8.2391699  59.5577126  53.9906090   7.4499284  58.3980681
  47.1731110   9.2719719  47.2735057  47.1501798   9.3707406  46.3216940
  47.4831747  10.1184869  47.5952223  49.8318488  11.3295874  51.3881671
  50.7861742  11.2979816  51.3211603  49.6331012  10.8686497  52.2031897
  50.4217870   9.8996990  53.9552469  51.2410759  10.3941068  53.9787306
  50.6954678   8.9828958  53.9270036  60.1784466   2.2907742  43.3180424
  59.2910321   2.5757393  43.1000619  60.5938455   2.1301505  42.4707701
  63.5299002   2.3154263  47.0334763  64.3059393   2.8050715  47.3059380
  62.8047137   2.7412317  47.4906633  65.9671561   3.0281882  48.0908704
  66.5616052   2.7877618  47.3802012  66.0398145   2.3089013  48.7182240
  48.1868717  16.8715493  48.4051869  48.0523185  16.1115894  47.8389867
  47.7700779  17.5956393  47.9380658  59.3227680  12.0552417  37.4128444
  60.0263530  12.2602419  38.0286100  58.5990329  12.6229179  37.6777528
  60.1525490   7.8062278  43.5330714  60.0960691   8.2630829  42.6938347
  60.7053833   7.0452963  43.3553557  63.9630296   3.5952010  44.3580834
  63.7067230   3.1948646  45.1889041  63.3383164   4.3095804  44.2330973
  68.2742634   6.3348083  46.8652125  67.7142192   6.4041272  47.6383687
  67.6686137   6.1589068  46.1451621  51.3437843  17.7684810  48.6170311
  51.2270227  18.7130243  48.5149002  50.5230289  17.4658372  49.0056111
  61.2314377  12.4934946  39.4626904  62.0659981  12.0616144  39.2804379
  61.0698720  12.3216960  40.3903799  60.8860269   8.9967059  40.8283243
  60.8309073   8.8311331  39.8871688  60.2606325   9.7043092  40.9845433
  45.6752784   4.2335124  54.6544666  46.3211648   3.7234078  55.1431891
  45.4669935   4.9703805  55.2288091  58.2006177  11.3015971  60.1536806
  59.0697336  11.4756623  59.7923441  57.7212928  12.1210388  60.0312536
  54.1956395  -1.5024832  40.4068562  54.1835065  -0.5582992  40.5636833
  55.0879817  -1.6854686  40.1128023  52.3692357  18.4213072  51.8326240
  53.2719603  18.4536682  52.1492735  52.1429727  17.4913523  51.8472576
  54.1245959  17.1744059  48.4936319  53.1741590  17.1745920  48.3800691
  54.4278445  16.4276793  47.9772353  50.0150275   1.3802741  58.7519680
  50.8781737   1.0239546  58.9623005  49.4415686   1.0416635  59.4395084
  69.8598652  23.0104597  49.5582081  70.4977062  22.8911344  48.8545421
  69.7419495  23.9585441  49.6170033  66.6688359  22.9632025  49.4943606
  66.3306870  22.8473090  48.6064140  67.5378127  22.5623190  49.4744612
  67.1508142  24.1166877  55.4529811  67.1396782  23.7219675  54.5810315
  67.3128781  23.3832949  56.0463583  60.0739606  26.3118693  48.3224717
  60.8660898  25.9709518  47.9071016  60.3136256  26.4213668  49.2426870
  63.8715403  26.9003989  54.4008995  63.5805269  27.8049619  54.2855661
  64.5072387  26.9420516  55.1153065  64.7971610  24.2780837  50.9910355
  65.3935182  24.0536860  50.2767318  64.8546581  23.5365583  51.5935803
  69.4139921  20.7356051  46.6335289  70.2003010  20.3175474  46.2825706
  69.6778625  21.6402143  46.8016937  74.8148348  20.6731284  47.5368267
  75.5473520  20.1030501  47.7706097  74.0587704  20.2852885  47.9774773
  72.3373768  14.3852858  51.9962876  72.0057093  15.2548269  51.7724091
  71.7419382  14.0689142  52.6756906  66.0729955  18.1248425  39.7292958
  66.2404357  18.9928662  40.0963429  65.8827124  18.2875707  38.8054248
  62.2817769  23.0379201  47.4295493  61.3568266  22.9055415  47.6373185
  62.5302182  23.8173420  47.9265436  72.2302432  19.1047944  49.0756226
  71.3219309  19.0363353  48.7814987  72.1790027  19.5819889  49.9038052
  66.0519175  20.5806083  40.7139625  65.9318801  21.0263134  41.5525106
  65.3571764  20.9291400  40.1553163  59.6426580  22.6812475  48.2639282
  59.7718961  22.9346953  49.1778694  58.9624032  23.2740183  47.9443937
  66.3043297  20.5237590  57.0191123  65.5276631  21.0831510  57.0093988
  66.9433860  21.0094373  57.5405994  74.0964078  17.3064383  50.8534100
  73.4538458  17.5996916  50.2073895  73.5919007  17.1917303  51.6587297
  71.7504242  21.0527556  41.5419959  72.6622098  21.2854943  41.3667657
  71.2413889  21.6364600  40.9795038  64.5589670  23.3323043  56.5809090
  65.3004354  23.8708087  56.3043914  63.8526655  23.9589332  56.7380642
  66.3876079  20.4124791  52.5514809  67.2337275  20.8364204  52.6949458
  66.3274717  19.7558415  53.2453372  69.5375525  18.0729159  54.2095982
  69.2936457  18.8271219  53.6730258  69.8135455  18.4514506  55.0443230
  69.0940216  17.2285592  49.7909820  68.2324695  17.5266845  50.0826558
  69.1202651  17.4455991  48.8590853  62.8025867  25.3199264  49.1363389
  63.3727224  25.7486532  48.4980874  63.3933979  25.0381849  49.8347575
  64.8470672  21.8950935  43.0073191  65.5494715  22.3471979  43.4747117
  64.5151300  21.2534754  43.6353084  63.2951033  20.4862691  57.3824400
  62.6649694  21.1678972  57.6159797  63.1887121  20.3745773  56.4377539
  58.5896006  20.1534488  48.3090325  57.7995060  20.4092016  47.8330435
  59.0807253  20.9682825  48.4142365  60.5410751  20.5179067  45.2673801
  59.7441915  20.6297761  45.7857297  60.3136343  20.8565719  44.4014692
  66.3716419  27.0423770  53.2156316  66.4360851  27.5044177  54.0514488
  65.6627343  26.4121135  53.3438626  56.8733709  20.4064978  50.7405315
  57.1241747  21.2911988  51.0062891  57.4093257  20.2269579  49.9680407
  62.5731776  14.7883457  59.7449651  62.1798722  14.2349656  60.4197296
  63.3897916  15.0994036  60.1356169  65.4899737  16.2041336  57.3369908
  66.2309451  16.8048490  57.2574370  65.7217660  15.4618974  56.7787951
  60.6341075  21.3897704  55.6148138  60.5194590  20.4882961  55.9155237
  59.7785593  21.6361400  55.2632954  69.4356900  12.2322439  51.6134190
  69.0921169  13.1224081  51.5373300  69.8035863  12.0424097  50.7503775
  69.4007183  22.2231050  40.1206625  68.8853806  22.9935655  40.3595012
  69.1284491  21.5496187  40.7439686  66.9854294  17.0680751  45.1791863
  66.1295890  16.6787602  44.9997502  67.3981246  17.1472712  44.3191649
  68.5153440  14.6027095  49.5783423  68.0118236  14.5657230  48.7651228
  68.8084047  15.5119837  49.6380080  64.7596326  14.6865824  48.5849605
  65.6249323  14.4908633  48.2255494  64.8273835  14.4576176  49.5118961
  74.3741457  24.9763405  42.0559798  73.5970900  24.6374565  41.6114960
  75.0532938  24.9816028  41.3814763  69.1893486  20.0958143  41.9466406
  68.8843622  20.4104292  42.7976549  70.1423928  20.1739562  41.9893739
  62.3658645  16.9168032  45.9565971  62.9402397  16.6943214  45.2239164
  62.9529628  16.9856727  46.7094573  71.4238223  22.8041759  46.7630348
  71.9370104  23.4371751  47.2652058  72.0739447  22.2042955  46.3973708
  62.6928233  18.9472493  39.9761857  61.8565545  19.2847180  40.2971131
  62.5533002  18.8121473  39.0388994  64.6681313  13.7909281  44.6841041
  64.0145725  13.4758298  44.0597656  64.6261787  13.1685022  45.4100864
  67.9019053  20.2791215  49.0088689  66.9841615  20.5006162  48.8510377
  68.3179197  20.3537525  48.1500396  68.6854101  21.6782630  44.1391369
  69.4325920  22.1904027  43.8298491  68.9545691  21.3566683  44.9995762
  72.1900019  27.7847760  44.8909491  71.7362346  26.9438670  44.9474681
  71.5593986  28.4209159  45.2284271  71.1332938  18.7139747  46.1210158
  70.3955695  18.2017133  46.4520401  71.3859712  18.2740128  45.3093435
  71.2344566  11.4915999  46.7151927  71.5403443  10.6313362  46.4277842
  71.9597171  12.0833619  46.5150921  57.5268922  21.8946685  45.1033525
  57.3293322  21.3016046  44.3784592  56.9715586  21.5898895  45.8209464
  65.5065645  21.7869792  47.2228118  65.5614255  20.8343628  47.1470595
  64.6956847  21.9429231  47.7069417  63.4458005  20.4046851  44.9818497
  62.6325871  20.7041022  45.3883689  63.9417000  20.0102540  45.6992980
  69.0432217  20.8688676  53.8133391  69.3981605  21.0960149  54.6727857
  69.6904348  21.2007053  53.1910647  62.9372080  17.9765207  50.5979732
  63.5771459  17.8353966  49.9002696  62.1049611  17.6899720  50.2218334
  60.0215148  21.4210719  42.7874477  59.0912736  21.3595175  43.0044440
  60.1172620  20.8986672  41.9911119  59.9400697  17.9465532  45.3752719
  60.2007514  18.8610865  45.2661880  60.7617869  17.4789974  45.5249332
  61.4125622  19.3603289  52.5451544  62.0848675  19.1520651  51.8964193
  60.5855408  19.1625375  52.1056776  67.3151194  15.9865230  54.5617204
  66.6679109  16.6855180  54.4681681  68.0852209  16.4201374  54.9293453
  67.4915328  23.8245995  52.6214024  68.4207388  23.9757154  52.4482992
  67.0706358  23.9130016  51.7662671  67.8408875  27.2278262  47.7801400
  67.5058708  27.1879032  48.6759049  67.3412821  26.5622978  47.3071810
  61.8153119  22.6345892  53.3053981  61.6772917  21.9026131  53.9065520
  62.7258043  22.5454792  53.0238169  70.7768067  24.5734296  38.0538459
  70.1597237  23.8481124  37.9571512  70.3084555  25.3343657  37.7105534
  64.4435420  22.3465851  52.7937660  65.1535038  21.7059044  52.7524279
  64.4004728  22.5978746  53.7163841  63.1564354  19.3331069  54.6133300
  62.6201711  18.8821808  55.2654896  62.5681062  19.4676978  53.8703764
  61.4512897  36.0995119  48.5077959  61.6909496  36.7313643  49.1856977
  60.6082094  35.7483159  48.7943318  62.5666613  18.7919721  37.1759764
  61.6896079  18.6708521  36.8122010  63.0424366  18.0005799  36.9238652
  54.0868753  23.5796880  47.2701271  54.7739793  23.2658610  46.6822286
  53.9316882  24.4838245  46.9968522  58.8903475  18.4687077  51.6986294
  58.8061664  17.8612746  50.9636704  58.0686181  18.9596095  51.6995791
  69.0627189  16.9540640  47.0656489  69.5595888  16.2010603  46.7457560
  68.2914170  16.9904957  46.4999699  70.1456970  25.7112328  44.6394913
  69.2113248  25.8313790  44.4699617  70.3233638  24.8084794  44.3754923
  65.6462158  19.0958023  46.7928174  65.2759945  18.5429064  47.4809080
  66.1421250  18.4916157  46.2403174  73.5329521  21.5529647  45.1744947
  73.9989973  22.3857639  45.1005250  73.9837021  21.0874629  45.8790205
  71.5046184  13.9210234  49.2135848  70.5909263  14.1514461  49.3818055
  71.9339285  14.0048678  50.0649881  71.2752642  22.1100126  51.7135742
  70.6224092  22.3576033  51.0588195  71.6533022  21.2964264  51.3798220
  67.3240215  22.8519937  58.2001779  66.6480852  22.7514066  58.8704155
  68.1467849  22.6959151  58.6637777  59.0719074  29.0891873  50.8214295
  59.6572511  28.3435561  50.9542199  58.8743913  29.3995830  51.7050959
  53.6636729  21.6597474  49.5418738  53.7020829  21.1261064  50.3355856
  53.1577022  21.1332679  48.9229715  61.0427491  16.5062014  53.0381280
  61.1068818  17.3676845  52.6258678  60.9794612  15.8936016  52.3053639
  60.5179764  18.5785147  56.6854314  61.1451803  18.1962224  57.2991839
  59.6607683  18.3599349  57.0510007  57.2945307  20.3861576  42.6172669
  57.5898748  19.4772254  42.5639723  56.3933342  20.3649315  42.2953672
  60.8239554  18.4617572  48.6000218  60.1026139  19.0753540  48.4607691
  61.6132809  18.9975337  48.5216864  63.6265867  15.7971999  54.8740870
  64.1500269  16.0434295  55.6367179  63.4078200  16.6292034  54.4544007
  59.0233148  18.0675674  42.7411994  58.6945854  17.1873052  42.5587100
  59.3772519  18.0123342  43.6288384  62.1374971  18.3548643  43.1087472
  62.4771044  18.8834565  42.3866080  62.5847092  18.6929049  43.8846039
  64.8318412  16.7385694  52.5590540  64.4915233  15.9393507  52.9611220
  64.1257418  17.0387405  51.9867373  65.4834884  13.8235006  51.0117863
  66.3060953  13.3495485  50.8896753  65.7272948  14.6025490  51.5116549
  64.1243118  16.8523265  41.3080765  64.8451481  17.2304518  40.8044482
  63.5008423  17.5712142  41.4115743  68.2674241  17.5568414  42.2439097
  68.4837856  18.4393052  41.9427925  67.7868309  17.1654627  41.5144739
  63.0073463  20.5154127  48.8209842  62.8618043  20.8294430  49.7134123
  62.5298666  21.1339027  48.2680740  64.8669846  17.5056675  48.8690731
  64.8531414  16.6097768  48.5323029  65.5842274  17.5127339  49.5029017
  66.7195976  17.9394015  50.9143859  66.4613754  18.8611086  50.9128189
  66.1881017  17.5424450  51.6044323  57.4819125  23.0559471  51.7597503
  56.9372593  23.8319279  51.8917777  58.3598475  23.4030276  51.6016624
  64.2706742  16.3871055  44.1378301  64.3922653  15.4587702  44.3369189
  63.9808784  16.4009741  43.2256617  67.1397932  14.0725966  47.2745021
  67.1619629  14.1365299  46.3197001  67.5565991  13.2330474  47.4685527
  58.2685147  22.1829368  54.6527660  57.5266883  22.3312003  55.2392290
  57.9477891  22.4437633  53.7894409  74.5508761  27.8111272  42.3218173
  75.0760085  28.1498545  41.5967493  74.4631113  26.8758288  42.1381308
  58.7141760  30.0694796  46.6838054  59.5399780  29.7698568  46.3036698
  58.3635812  29.3002419  47.1327843  56.9150365  27.9881123  47.6426988
  56.0782274  27.5603297  47.4610989  56.8874011  28.1813566  48.5797779
  63.7547821  17.9003053  58.3468234  63.8035977  18.7765176  57.9646004
  64.2970335  17.3580446  57.7739877  71.6504304  21.2767570  56.2561406
  72.5514167  21.1374035  55.9645404  71.7252279  21.4422025  57.1959584
  65.9847110  18.6534425  55.1014593  65.1150419  18.9467991  54.8297181
  66.2206590  19.2374870  55.8221856  74.1105927  22.8366199  53.6524179
  74.5860048  23.0293845  52.8443031  73.1871492  22.8925384  53.4067563
  68.6886143  14.8714042  52.6180013  69.2068087  15.6075069  52.2926502
  68.3341276  15.1778035  53.4526772  60.2685081  19.7318723  40.7341419
  59.5754326  19.8063078  40.0781455  60.0236833  18.9679067  41.2562936
  68.9398738  11.2914325  48.1380910  69.2200491  10.6237514  48.7641336
  69.7249344  11.4843420  47.6255573  72.8107596  19.7131959  51.8852485
  73.7625019  19.8130056  51.9064709  72.6411046  18.9210227  52.3950569
  70.8321975  16.7987542  52.0711886  70.2371907  17.0792555  51.3758374
  70.5471672  17.2881443  52.8428627  75.2895674  22.9338078  50.9994784
  75.2571994  21.9954079  51.1854468  75.8996297  23.0122115  50.2660609
  67.1279005  21.8034131  37.0421988  68.0738109  21.6740339  37.1110406
  66.7493249  21.0648793  37.5191417  75.4390162  19.7249122  51.0453068
  74.9229211  18.9407578  50.8582996  76.3230111  19.3967838  51.2099587
  73.1000889  13.4690137  47.0048880  72.9025710  13.1605225  47.8892212
  73.7100595  14.1951776  47.1346810  67.0117697  25.8551877  58.5022645
  67.9320707  26.0330476  58.6962692  66.9767280  24.9107923  58.3502345
  65.3121922  19.7284108  36.9776874  64.4053377  19.4317220  37.0539587
  65.5897903  19.4313926  36.1111160  56.2299862  21.0490471  47.4275920
  55.9102646  20.1955779  47.1350294  55.6833290  21.2639049  48.1833887
  60.0079770  23.7652912  51.1445427  60.2265779  24.6970020  51.1633460
  60.4205543  23.4060886  51.9300230  66.9283987  14.2720997  43.1321115
  66.1184716  13.9268082  43.5076361  67.6168404  13.9628541  43.7208727
  68.8574536  13.3499044  44.7545412  69.4105574  13.7694498  45.4135435
  69.0944622  12.4234792  44.7968368  64.8807635  19.3386118  60.5348176
  64.7804362  20.2880475  60.4660267  64.6629177  19.0104357  59.6624246
  64.0820706  16.5871043  37.1188853  64.9439870  16.9125941  37.3784670
  64.2671050  15.8002539  36.6061919  56.0988122  24.6693383  49.3969042
  55.4051594  24.2547335  48.8838996  56.8461113  24.7113919  48.8002461
  72.2353343  15.4599569  44.2624076  71.6552012  16.1184373  43.8802128
  71.9689275  14.6376914  43.8511493  70.6856909  14.8604627  46.4645396
  71.1856688  14.9721162  45.6559715  71.3292517  14.5565680  47.1046205
  64.7438905  22.7683257  59.3513237  64.2605987  23.5683617  59.5577126
  64.8299844  22.7791202  58.3980681  58.0124865  24.6011636  47.2735057
  57.9895553  24.6999324  46.3216940  58.3225501  25.4476787  47.5952223
  60.6712242  26.6587791  51.3881671  61.6255496  26.6271734  51.3211603
  60.4724766  26.1978415  52.2031897  61.2611625  25.2288907  53.9552469
  62.0804514  25.7232986  53.9787306  61.5348432  24.3120876  53.9270036
  71.0178221  17.6199660  43.3180424  70.1304076  17.9049310  43.1000619
  71.4332210  17.4593423  42.4707701  74.3692757  17.6446181  47.0334763
  75.1453147  18.1342633  47.3059380  73.6440891  18.0704235  47.4906633
  76.8065316  18.3573800  48.0908704  77.4009806  18.1169536  47.3802012
  76.8791899  17.6380930  48.7182240  59.0262471  32.2007411  48.4051869
  58.8916939  31.4407812  47.8389867  58.6094534  32.9248311  47.9380658
  70.1621434  27.3844334  37.4128444  70.8657284  27.5894337  38.0286100
  69.4384083  27.9521096  37.6777528  70.9919245  23.1354196  43.5330714
  70.9354446  23.5922747  42.6938347  71.5447587  22.3744880  43.3553557
  74.8024050  18.9243928  44.3580834  74.5460985  18.5240563  45.1889041
  74.1776919  19.6387721  44.2330973  79.1136388  21.6640001  46.8652125
  78.5535946  21.7333190  47.6383687  78.5079892  21.4880985  46.1451621
  71.7254024  24.3258977  40.8283243  71.6702828  24.1603248  39.8871688
  71.1000079  25.0335010  40.9845433  56.5146539  19.5627041  54.6544666
  57.1605402  19.0525995  55.1431891  56.3063690  20.2995723  55.2288091
  65.0350149  13.8267086  40.4068562  65.0228819  14.7708926  40.5636833
  65.9273571  13.6437231  40.1128023  68.8502269  10.4209863  44.6614499
  68.0834665   9.8668349  44.8071181  69.2612974  10.4931731  45.5228650
  60.8544030  16.7094658  58.7519680  61.7175491  16.3531463  58.9623005
  60.2809441  16.3708553  59.4395084  91.5359563  39.1670393  47.4080577
  90.7823271  38.5977791  47.2524581  91.6707104  39.1333057  48.3551212
  75.8743904  29.1559004  40.4068562  75.8622574  30.1000843  40.5636833
  76.7667326  28.9729149  40.1128023  94.0161277  45.0436694  51.9962876
  93.6844602  45.9132104  51.7724091  93.4206891  44.7272978  52.6756906
  95.7751587  47.9648218  50.8534100  95.1325967  48.2580751  50.2073895
  95.2706515  47.8501138  51.6587297  90.7727725  47.8869427  49.7909820
  89.9112204  48.1850681  50.0826558  90.7990160  48.1039826  48.8590853
  90.1940949  45.2610930  49.5783423  89.6905745  45.2241065  48.7651228
  90.4871556  46.1703673  49.6380080  92.8120447  49.3723582  46.1210158
  92.0743204  48.8600968  46.4520401  93.0647221  48.9323963  45.3093435
  92.9132075  42.1499834  46.7151927  93.2190952  41.2897197  46.4277842
  93.6384680  42.7417454  46.5150921  90.7414698  47.6124476  47.0656489
  91.2383397  46.8594438  46.7457560  89.9701679  47.6488792  46.4999699
  95.2117030  52.2113482  45.1744947  95.6777482  53.0441474  45.1005250
  95.6624530  51.7458464  45.8790205  93.1833693  44.5794069  49.2135848
  92.2696772  44.8098296  49.3818055  93.6126794  44.6632513  50.0649881
  97.5406248  58.3717419  55.1844121  97.2491056  58.7347400  56.0207582
  96.9278379  57.6584428  55.0057453  90.3673652  45.5297877  52.6180013
  90.8855596  46.2658904  52.2926502  90.0128785  45.8361871  53.4526772
  90.6186247  41.9498160  48.1380910  90.8988000  41.2821349  48.7641336
  91.4036853  42.1427256  47.6255573  94.7788398  44.1273973  47.0048880
  94.5813219  43.8189061  47.8892212  95.3888104  44.8535612  47.1346810
 100.8675030  52.7945783  50.7375272 100.1408193  52.6601748  50.1291764
 100.4522317  53.1022612  51.5431990  93.9140852  46.1183405  44.2624076
  93.3339521  46.7768209  43.8802128  93.6476784  45.2960749  43.8511493
  92.3644418  45.5188462  46.4645396  92.8644197  45.6304997  45.6559715
  93.0080026  45.2149515  47.1046205  92.6965730  48.2783495  43.3180424
  91.8091585  48.5633146  43.1000619  93.1119719  48.1177258  42.4707701
  96.0480266  48.3030016  47.0334763  96.8240656  48.7926468  47.3059380
  95.3228400  48.7288070  47.4906633  98.4852825  49.0157635  48.0908704
  99.0797315  48.7753371  47.3802012  98.5579408  48.2964766  48.7182240
  96.4811559  49.5827763  44.3580834  96.2248494  49.1824399  45.1889041
  95.8564427  50.2971557  44.2330973 100.7923897  52.3223836  46.8652125
 100.2323455  52.3917025  47.6383687 100.1867401  52.1464821  46.1451621
 102.3779916  68.9980350  49.5582081 103.0158326  68.8787097  48.8545421
 102.2600759  69.9461194  49.6170033  99.6689405  70.1042630  55.4529811
  99.6578046  69.7095428  54.5810315  99.8310045  69.3708702  56.0463583
 100.6255996  74.4714222  40.7954961  99.9743976  75.0568303  40.4088975
 101.4200359  75.0020417  40.8549999  96.3896666  72.8879742  54.4008995
  96.0986532  73.7925373  54.2855661  97.0253651  72.9296269  55.1153065
 102.1031262  72.1604654  41.3323946 101.4677095  72.2339281  42.0444850
 101.7728668  72.7498253  40.6543025 107.3329611  66.6607037  47.5368267
 108.0654783  66.0906254  47.7706097 106.5768967  66.2728638  47.9774773
 104.8555032  60.3728611  51.9962876 104.5238357  61.2424022  51.7724091
 104.2600645  60.0564895  52.6756906 101.3486551  72.5741157  51.3958789
 101.0487274  73.4766196  51.2874596 101.0037611  72.3073340  52.2479942
 104.7483695  65.0923697  49.0756226 103.8400572  65.0239106  48.7814987
 104.6971291  65.5695642  49.9038052  98.5700439  66.5681836  40.7139625
  98.4500064  67.0138887  41.5525106  97.8753027  66.9167153  40.1553163
  96.3307331  79.3385478  44.3629757  96.2531361  80.2893303  44.4418237
  95.7268975  78.9931350  45.0204683  98.8224561  66.5113343  57.0191123
  98.0457895  67.0707263  57.0093988  99.4615124  66.9970126  57.5405994
 106.6145341  63.2940136  50.8534100 105.9719722  63.5872669  50.2073895
 106.1100270  63.1793056  51.6587297 104.2685505  67.0403309  41.5419959
 105.1803361  67.2730696  41.3667657 103.7595152  67.6240353  40.9795038
  97.0770933  69.3198796  56.5809090  97.8185618  69.8583840  56.3043914
  96.3707919  69.9465085  56.7380642 102.5526273  71.4627937  55.1781252
 102.9609629  71.0210347  54.4335884 101.8303534  70.8880564  55.4315445
  98.9057343  66.4000544  52.5514809  99.7518538  66.8239957  52.6949458
  98.8455980  65.7434168  53.2453372 102.8755087  72.0229127  48.9333541
 102.2463950  72.1874842  48.2309609 102.4880750  72.4370737  49.7044505
 106.7544319  72.9583565  46.2877905 106.0695357  73.3382467  45.7374938
 106.8388169  73.5678892  47.0209852 102.0556788  64.0604912  54.2095982
 101.8117720  64.8146972  53.6730258 102.3316719  64.4390260  55.0443230
 104.0095251  70.6043524  52.8873248 104.2212146  71.2475284  52.2107629
 103.9624999  69.7705841  52.4195178 101.6121480  63.2161345  49.7909820
 100.7505959  63.5142599  50.0826558 101.6383915  63.4331744  48.8590853
  95.8132297  66.4738445  57.3824400  95.1830957  67.1554725  57.6159797
  95.7068385  66.3621526  56.4377539 105.1241079  73.4815480  51.0595605
 105.9458523  73.0795667  50.7778287 105.1203482  73.3783714  52.0111721
  98.8897682  73.0299523  53.2156316  98.9542115  73.4919930  54.0514488
  98.1808606  72.3996888  53.3438626 113.2147072  69.8254228  47.4080577
 112.4610780  69.2561626  47.2524581 113.3494613  69.7916893  48.3551212
  95.0913040  60.7759210  59.7449651  94.6979985  60.2225409  60.4197296
  95.9079180  61.0869789  60.1356169  93.8669982  75.3308825  45.7385974
  94.0436610  76.2526790  45.5506958  94.6626816  75.0167244  46.1680354
  98.0081001  62.1917089  57.3369908  98.7490714  62.7924243  57.2574370
  98.2398923  61.4494727  56.7787951  93.1522339  67.3773457  55.6148138
  93.0375854  66.4758714  55.9155237  92.2966856  67.6237153  55.2632954
 100.2314176  75.3191197  57.2135638  99.7878031  74.5327576  56.8956543
 100.8931390  75.5070348  56.5479529  94.9901298  76.8486999  51.7396317
  95.5408723  76.7204062  50.9673311  94.1512773  77.1481888  51.3891210
 102.3295414  75.5993997  55.2417040 102.3113890  76.4202878  54.7497309
 103.2515334  75.4748072  55.4667181  98.7868469  73.1138126  56.0840548
  99.3196805  72.3526415  55.8539856  98.2582550  72.8211778  56.8264702
 101.9188446  68.2106803  40.1206625 101.4035070  68.9811408  40.3595012
 101.6465755  67.5371940  40.7439686 106.8922720  70.9639158  42.0559798
 106.1152163  70.6250318  41.6114960 107.5714201  70.9691781  41.3814763
 101.7074749  66.0833896  41.9466406 101.4024885  66.3980045  42.7976549
 102.6605192  66.1615315  41.9893739 105.1314027  70.4373139  48.7126406
 104.4737702  71.1272401  48.8006535 105.9354427  70.8269571  49.0560393
 103.9419486  68.7917512  46.7630348 104.4551368  69.4247504  47.2652058
 104.5920710  68.1918708  46.3973708  98.2973781  70.0604329  36.5994333
  97.3900843  69.8293583  36.7985482  98.7944813  69.2641948  36.7868315
 101.2041860  78.7701836  39.5191019 100.5303559  79.0733533  40.1275977
 101.5907682  79.5730917  39.1696476 104.7081282  73.7723514  44.8909491
 104.2543609  72.9314423  44.9474681 104.0775249  74.4084912  45.2284271
 103.1514222  75.6100010  45.8259309 103.4437196  76.1705067  45.1071674
 103.6612842  75.9028571  46.5812468  99.1738103  71.7025668  38.4606402
  98.7357533  70.9861527  38.0012039  99.9148544  71.9301783  37.8991493
  98.1147847  76.3880361  46.9152762  98.0724026  76.6141208  45.9861294
  99.0310546  76.1543736  47.0638563 101.5613481  66.8564429  53.8133391
 101.9162868  67.0835902  54.6727857 102.2085612  67.1882806  53.1910647
 107.2911217  69.9782865  44.5182720 107.1529116  70.1684461  43.5903909
 106.9347436  70.7402248  44.9750771 107.3180597  72.0459392  49.5293992
 107.7517104  71.9534681  50.3777046 108.0312178  72.0216892  48.8914008
 101.0508492  75.6461486  51.0627092 101.1045514  76.2152422  51.8304808
 100.1823273  75.8163371  50.6981129 108.1796147  72.0883092  52.0626877
 108.3732037  72.9928903  52.3086152 108.0796765  71.6290511  52.8965462
  99.8332457  61.9740983  54.5617204  99.1860372  62.6730933  54.4681681
 100.6033473  62.4077127  54.9293453 103.2411255  72.2389835  57.6367758
 103.0896762  72.0100387  56.7197841 103.2315935  73.1960437  57.6499103
 100.0096592  69.8121748  52.6214024 100.9388652  69.9632908  52.4482992
  99.5887622  69.9005769  51.7662671  98.8084924  73.8372412  50.3912562
  98.6696009  73.4691197  51.2638500  98.0199520  74.3520052  50.2196520
  99.4033075  78.9381509  41.7338098  99.5784831  78.4669552  42.5483721
  98.7165864  79.5647275  41.9619359 103.2949330  70.5610049  38.0538459
 102.6778501  69.8356878  37.9571512 102.8265819  71.3219410  37.7105534
  96.9616683  68.3341604  52.7937660  97.6716302  67.6934797  52.7524279
  96.9185991  68.5854499  53.7163841 104.9503462  75.2708958  55.7144240
 104.8916008  74.5868178  55.0474823 105.3522980  76.0127948  55.2624866
  93.9694161  82.0870872  48.5077959  94.2090759  82.7189396  49.1856977
  93.1263357  81.7358912  48.7943318 104.9520869  73.2348542  53.9458219
 104.0647648  72.8974463  54.0684618 105.5219420  72.5031573  54.1826985
  98.4822023  77.8949994  50.9119463  98.4092194  78.7004965  51.4238767
  98.0399416  78.0941960  50.0867484  98.2711802  77.1321764  44.4222284
  97.4879324  77.6743444  44.5160509  98.9704547  77.6495744  44.8216525
 109.4338210  68.6456759  48.7074781 109.4228086  69.5281474  48.3368714
 108.5655589  68.2928310  48.5129318 100.9420706  77.7936828  53.0677621
 101.6548678  78.4284293  52.9953523 100.4510735  77.8900694  52.2517623
 102.6638233  71.6988081  44.6394913 101.7294512  71.8189543  44.4699617
 102.8414902  70.7960547  44.3754923 106.0510784  67.5405400  45.1744947
 106.5171237  68.3733392  45.1005250 106.5018285  67.0750382  45.8790205
  95.9932620  75.5431271  53.8883192  96.6942079  76.1767754  54.0412586
  95.5227735  75.8846003  53.1278831 104.1187016  73.8849221  42.1731099
 104.3946859  73.7705816  43.0824973 103.2491514  73.4866706  42.1343272
 103.7933906  68.0975879  51.7135742 103.1405356  68.3451786  51.0588195
 104.1714286  67.2840017  51.3798220 100.7541080  78.1335572  45.8163913
 100.9363474  77.3157228  46.2791665 101.5774066  78.3503264  45.3788803
 101.0883245  77.0603757  43.0778961 101.6171011  76.5496212  42.4649123
 101.3511465  76.7446287  43.9424494  99.8421479  68.8395690  58.2001779
  99.1662116  68.7389819  58.8704155 100.6649113  68.6834904  58.6637777
  91.5900338  75.0767627  50.8214295  92.1753775  74.3311314  50.9542199
  91.3925176  75.3871583  51.7050959  94.4438993  78.1118874  45.8376737
  93.7749368  78.5965002  45.3540777  94.3051863  78.3588094  46.7520116
  98.5844262  80.1462617  52.4359395  99.1362570  80.3094239  53.2008481
  98.9250455  80.7367055  51.7639420  93.0361027  64.5660900  56.6854314
  93.6633066  64.1837977  57.2991839  92.1788946  64.3475102  57.0510007
 103.4355136  74.9723875  58.2908050 103.9795040  75.5853833  57.7963005
 102.8541981  75.5303453  58.8075063 101.7212649  78.0944593  49.4223078
 101.5963788  77.2934333  48.9134023 102.3791740  78.5890786  48.9337048
 103.7847557  75.8953613  51.0502628 102.8377893  75.7758964  50.9780954
 104.1330330  75.0076111  51.1328889  96.1447131  61.7847752  54.8740870
  96.6681532  62.0310049  55.6367179  95.9259464  62.6167787  54.4544007
 100.7893991  75.6906329  47.2506980 100.6418953  74.7623037  47.4314550
 101.6147484  75.7126420  46.7664055 104.3928112  76.5134888  48.3371853
 105.3174660  76.3077749  48.1996304 104.2243416  76.2651289  49.2461194
  97.3499676  62.7261447  52.5590540  97.0096496  61.9269260  52.9611220
  96.6438682  63.0263158  51.9867373 104.1823429  77.0320555  43.6933944
 104.3560306  76.4666978  42.9407797 104.6752320  77.8321450  43.5113434
 110.0362820  69.7956978  45.3124244 110.4793966  69.0464304  44.9143367
 109.1589330  69.7867115  44.9297976 105.1698601  76.3487320  40.7930842
 105.8649506  76.9694013  41.0118157 105.5121751  75.4982671  41.0683220
 107.0690024  73.7987025  42.3218173 107.5941348  74.1374298  41.5967493
 106.9812377  72.8634041  42.1381308  98.7310073  77.7121099  54.4508050
  99.0397199  77.4670246  55.3230749  99.5285555  77.9167737  53.9626920
  98.7530685  79.8659009  46.6813426  98.3135675  79.3735387  47.3746283
  99.5038802  79.3231976  46.4405502  91.2323024  76.0570550  46.6838054
  92.0581044  75.7574321  46.3036698  90.8817076  75.2878172  47.1327843
  96.2004557  75.4097018  48.7535728  95.5784566  74.7467723  48.4537956
  96.8709424  75.4358150  48.0709376  96.2729085  63.8878806  58.3468234
  96.3217240  64.7640929  57.9646004  96.8151599  63.3456199  57.7739877
 106.7583930  74.4319929  57.6269371 105.9679474  74.4144068  57.0873871
 106.5217285  74.9708223  58.3818408 106.8781805  71.2812395  54.9402100
 106.9279810  71.1162403  55.8817622 106.7695729  70.4139654  54.5499980
  95.7618064  73.9600941  42.2294189  95.9106184  74.6436405  41.5760861
  96.5684507  73.9406031  42.7443644 104.1685568  67.2643323  56.2561406
 105.0695430  67.1249788  55.9645404 104.2433542  67.4297778  57.1959584
  98.5028373  64.6410178  55.1014593  97.6331682  64.9343744  54.8297181
  98.7387853  65.2250623  55.8221856 108.3800002  73.7009337  55.1844121
 108.0884810  74.0639317  56.0207582 107.7672133  72.9876345  55.0057453
 109.5795684  71.2662217  47.7046691 110.4142576  71.7052021  47.8684252
 109.7154813  70.7900870  46.8854937 106.6287190  68.8241952  53.6524179
 107.1041312  69.0169598  52.8443031 105.7052756  68.8801137  53.4067563
 101.2067407  60.8589795  52.6180013 101.7249351  61.5950822  52.2926502
 100.8522540  61.1653788  53.4526772  99.2613470  76.4549072  39.7005936
  98.6887437  77.0739259  39.2476408  99.8346263  77.0048433  40.2345858
 105.3288859  65.7007712  51.8852485 106.2806282  65.8005809  51.9064709
 105.1592310  64.9085980  52.3950569 103.3503239  62.7863295  52.0711886
 102.7553171  63.0668308  51.3758374 103.0652936  63.2757196  52.8428627
 102.4810729  76.7386222  40.8314518 103.4141402  76.6731783  41.0347394
 102.3933942  77.5742489  40.3729051 105.1098746  76.0552092  37.7918466
 105.0312378  75.7211956  38.6854224 105.9308413  76.5473860  37.7909938
 107.8076937  68.9213831  50.9994784 107.7753257  67.9829832  51.1854468
 108.4177561  68.9997868  50.2660609  99.6460268  67.7909884  37.0421988
 100.5919373  67.6616092  37.1110406  99.2674513  67.0524546  37.5191417
 107.9571426  65.7124875  51.0453068 107.4410474  64.9283331  50.8582996
 108.8411374  65.3843591  51.2099587 113.6253487  69.9829838  50.1400821
 114.3556875  69.7215126  50.7008525 113.0160432  69.2458560  50.1802889
 111.7068784  68.1237701  50.7375272 110.9801948  67.9893666  50.1291764
 111.2916071  68.4314529  51.5431990  99.5298961  71.8427630  58.5022645
 100.4501970  72.0206229  58.6962692  99.4948544  70.8983676  58.3502345
  97.3988898  65.3261871  60.5348176  97.2985625  66.2756228  60.4660267
  97.1810440  64.9980110  59.6624246  97.2620168  68.7559010  59.3513237
  96.7787250  69.5559370  59.5577126  97.3481108  68.7666955  58.3980681
 106.8874020  63.6321934  47.0334763 107.6634411  64.1218386  47.3059380
 106.1622155  64.0579988  47.4906633 109.3246579  64.3449553  48.0908704
 109.9191070  64.1045289  47.3802012 109.3973163  63.6256684  48.7182240
  91.5443735  78.1883164  48.4051869  91.4098203  77.4283565  47.8389867
  91.1275797  78.9124064  47.9380658 102.6802698  73.3720087  37.4128444
 103.3838548  73.5770090  38.0286100 101.9565347  73.9396849  37.6777528
 103.5100508  69.1229949  43.5330714 103.4535709  69.5798500  42.6938347
 104.0628850  68.3620633  43.3553557 107.3205314  64.9119681  44.3580834
 107.0642248  64.5116316  45.1889041 106.6958182  65.6263474  44.2330973
 111.6317652  67.6515754  46.8652125 111.0717210  67.7208943  47.6383687
 111.0261155  67.4756738  46.1451621  94.7012861  79.0852481  48.6170311
  94.5845245  80.0297913  48.5149002  93.8805307  78.7826042  49.0056111
 104.5889395  73.8102617  39.4626904 105.4234999  73.3783815  39.2804379
 104.4273738  73.6384630  40.3903799 104.2435287  70.3134730  40.8283243
 104.1884091  70.1479001  39.8871688 103.6181343  71.0210763  40.9845433
 101.5581195  72.6183642  60.1536806 102.4272354  72.7924294  59.7923441
 101.0787946  73.4378059  60.0312536  95.7267375  79.7380743  51.8326240
  96.6294621  79.7704353  52.1492735  95.5004745  78.8081194  51.8472576
  97.4820977  78.4911729  48.4936319  96.5316608  78.4913591  48.3800691
  97.7853463  77.7444464  47.9772353  93.3725293  62.6970411  58.7519680
  94.2356755  62.3407216  58.9623005  92.7990704  62.3584306  59.4395084
 113.2173670  84.3272268  49.5582081 113.8552080  84.2079015  48.8545421
 113.0994513  85.2753112  49.6170033 110.0263377  84.2799696  49.4943606
 109.6881888  84.1640761  48.6064140 110.8953145  83.8790861  49.4744612
 105.8850192  86.1335172  45.4840497 105.3215057  86.0425109  44.7156784
 105.7702587  85.3135077  45.9642989 110.5083160  85.4334548  55.4529811
 110.4971800  85.0387346  54.5810315 110.6703799  84.7000620  56.0463583
 103.4314624  87.6286364  48.3224717 104.2235916  87.2877188  47.9071016
 103.6711274  87.7381339  49.2426870 111.4649751  89.8006140  40.7954961
 110.8137731  90.3860220  40.4088975 112.2594114  90.3312335  40.8549999
 105.3905378  86.8895277  41.1942096 106.1636254  86.3424264  41.0554972
 105.7430777  87.7539526  41.4056557 107.2290421  88.2171659  54.4008995
 106.9380287  89.1217290  54.2855661 107.8647405  88.2588187  55.1153065
 108.1546628  85.5948508  50.9910355 108.7510200  85.3704530  50.2767318
 108.2121599  84.8533253  51.5935803 107.7271656  83.0487943  38.8260546
 107.9797177  82.5269464  38.0644009 106.7896215  82.8854089  38.9287229
 112.7714939  82.0523722  46.6335289 113.5578028  81.6343145  46.2825706
 113.0353643  82.9569814  46.8016937 112.9425016  87.4896572  41.3323946
 112.3070849  87.5631198  42.0444850 112.6122423  88.0790171  40.6543025
 118.1723366  81.9898955  47.5368267 118.9048538  81.4198172  47.7706097
 117.4162722  81.6020555  47.9774773 107.4467945  84.9516049  41.0284921
 107.3304203  84.2760953  41.6966005 107.5570205  84.4648423  40.2117074
 109.7899486  84.4126196  44.7331610 109.4257693  83.8856817  45.4444531
 110.6466602  84.0224665  44.5598095 115.6948786  75.7020529  51.9962876
 115.3632111  76.5715940  51.7724091 115.0994400  75.3856813  52.6756906
 109.4304973  79.4416096  39.7292958 109.5979375  80.3096332  40.0963429
 109.2402142  79.6043378  38.8054248 112.1880306  87.9033075  51.3958789
 111.8881029  88.8058114  51.2874596 111.8431365  87.6365258  52.2479942
 105.6392787  84.3546872  47.4295493 104.7143284  84.2223086  47.6373185
 105.8877200  85.1341091  47.9265436 115.5877450  80.4215615  49.0756226
 114.6794327  80.3531023  48.7814987 115.5365045  80.8987560  49.9038052
 109.4094193  81.8973753  40.7139625 109.2893819  82.3430804  41.5525106
 108.7146782  82.2459071  40.1553163 103.0001598  83.9980145  48.2639282
 103.1293979  84.2514624  49.1778694 102.3199050  84.5907853  47.9443937
 107.1701086  94.6677395  44.3629757 107.0925115  95.6185220  44.4418237
 106.5662729  94.3223268  45.0204683 109.6618315  81.8405261  57.0191123
 108.8851649  82.3999181  57.0093988 110.3008878  82.3262044  57.5405994
 117.4539096  78.6232053  50.8534100 116.8113476  78.9164587  50.2073895
 116.9494024  78.5084974  51.6587297 115.1079260  82.3695227  41.5419959
 116.0197116  82.6022613  41.3667657 114.5988907  82.9532271  40.9795038
 107.9164688  84.6490714  56.5809090 108.6579372  85.1875758  56.3043914
 107.2101673  85.2757003  56.7380642 113.3920027  86.7919854  55.1781252
 113.8003383  86.3502265  54.4335884 112.6697289  86.2172482  55.4315445
 109.7451097  81.7292461  52.5514809 110.5912293  82.1531875  52.6949458
 109.6849735  81.0726086  53.2453372 113.7148842  87.3521045  48.9333541
 113.0857704  87.5166759  48.2309609 113.3274504  87.7662655  49.7044505
 117.5938074  88.2875483  46.2877905 116.9089112  88.6674384  45.7374938
 117.6781923  88.8970810  47.0209852 112.8950543  79.3896830  54.2095982
 112.6511475  80.1438890  53.6730258 113.1710473  79.7682177  55.0443230
 114.8489005  85.9335442  52.8873248 115.0605901  86.5767202  52.2107629
 114.8018754  85.0997759  52.4195178 112.4515234  78.5453263  49.7909820
 111.5899713  78.8434516  50.0826558 112.4777669  78.7623662  48.8590853
 109.2676804  87.0895453  46.1983626 109.7315149  87.3683156  45.4088248
 109.0033602  86.1878898  46.0156717 106.1600885  86.6366935  49.1363389
 106.7302242  87.0654203  48.4980874 106.7508997  86.3549519  49.8347575
 108.2045690  83.2118606  43.0073191 108.9069733  83.6639649  43.4747117
 107.8726318  82.5702424  43.6353084 106.6526051  81.8030362  57.3824400
 106.0224712  82.4846643  57.6159797 106.5462139  81.6913444  56.4377539
 101.9471024  81.4702158  48.3090325 101.1570078  81.7259687  47.8330435
 102.4382271  82.2850496  48.4142365 115.9634833  88.8107397  51.0595605
 116.7852277  88.4087585  50.7778287 115.9597236  88.7075632  52.0111721
 103.8985769  81.8346737  45.2673801 103.1016932  81.9465432  45.7857297
 103.6711361  82.1733390  44.4014692 109.7291437  88.3591441  53.2156316
 109.7935869  88.8211848  54.0514488 109.0202361  87.7288806  53.3438626
 100.2308727  81.7232649  50.7405315 100.4816765  82.6079659  51.0062891
 100.7668275  81.5437250  49.9680407 109.4439454  90.0259548  43.0835296
 109.3085129  90.8711084  43.5120144 109.9849267  90.2278826  42.3201230
 105.9306794  76.1051128  59.7449651 105.5373740  75.5517327  60.4197296
 106.7472934  76.4161707  60.1356169 102.8968852  87.5434986  43.6563221
 103.4093372  88.3378236  43.8068786 103.5491565  86.8461277  43.5896823
 104.7063737  90.6600742  45.7385974 104.8830365  91.5818707  45.5506958
 105.5020570  90.3459162  46.1680354 108.8474755  77.5209007  57.3369908
 109.5884468  78.1216160  57.2574370 109.0792678  76.7786645  56.7787951
 103.9916093  82.7065374  55.6148138 103.8769608  81.8050632  55.9155237
 103.1360611  82.9529071  55.2632954 111.0707931  90.6483115  57.2135638
 110.6271785  89.8619493  56.8956543 111.7325144  90.8362265  56.5479529
 105.8295052  92.1778916  51.7396317 106.3802477  92.0495980  50.9673311
 104.9906528  92.4773805  51.3891210 113.1689169  90.9285915  55.2417040
 113.1507644  91.7494796  54.7497309 114.0909089  90.8039990  55.4667181
 109.6262223  88.4430044  56.0840548 110.1590560  87.6818332  55.8539856
 109.0976304  88.1503696  56.8264702 112.7931918  73.5490110  51.6134190
 112.4496187  74.4391752  51.5373300 113.1610881  73.3591768  50.7503775
 100.8617769  85.8723641  44.4322792 101.6992991  86.2820649  44.2156500
 101.0396036  84.9323083  44.4022986 112.7582201  83.5398721  40.1206625
 112.2428824  84.3103326  40.3595012 112.4859509  82.8663857  40.7439686
 110.3429312  78.3848422  45.1791863 109.4870908  77.9955272  44.9997502
 110.7556264  78.4640383  44.3191649 111.8728458  75.9194765  49.5783423
 111.3693254  75.8824900  48.7651228 112.1659065  76.8287508  49.6380080
 108.1171344  76.0033495  48.5849605 108.9824341  75.8076304  48.2255494
 108.1848853  75.7743847  49.5118961 117.7316475  86.2931076  42.0559798
 116.9545918  85.9542235  41.6114960 118.4107956  86.2983699  41.3814763
 112.5468504  81.4125813  41.9466406 112.2418639  81.7271962  42.7976549
 113.4998946  81.4907233  41.9893739 110.9914936  87.5716037  43.5959360
 110.4636297  86.8368796  43.2832597 110.4902438  88.3490713  43.3499328
 115.9707782  85.7665057  48.7126406 115.3131456  86.4564318  48.8006535
 116.7748181  86.1561489  49.0560393 105.7233663  78.2335703  45.9565971
 106.2977415  78.0110884  45.2239164 106.3104646  78.3024397  46.7094573
 114.7813241  84.1209430  46.7630348 115.2945122  84.7539422  47.2652058
 115.4314464  83.5210625  46.3973708 106.0503250  80.2640164  39.9761857
 105.2140563  80.6014850  40.2971131 105.9108020  80.1289144  39.0388994
 108.0256331  75.1076952  44.6841041 107.3720743  74.7925969  44.0597656
 107.9836805  74.4852692  45.4100864 109.1367536  85.3896247  36.5994333
 108.2294598  85.1585500  36.7985482 109.6338568  84.5933866  36.7868315
 112.0435615  94.0993754  39.5191019 111.3697314  94.4025451  40.1275977
 112.4301437  94.9022834  39.1696476 111.2594071  81.5958885  49.0088689
 110.3416633  81.8173832  48.8510377 111.6754215  81.6705196  48.1500396
 112.0429119  82.9950301  44.1391369 112.7900938  83.5071698  43.8298491
 112.3120709  82.6734354  44.9995762 110.3155769  85.4908842  41.1218323
 109.4066989  85.2067875  41.2190793 110.3450853  85.9107920  40.2621630
 115.5475037  89.1015431  44.8909491 115.0937364  88.2606341  44.9474681
 114.9169004  89.7376830  45.2284271 114.4907956  80.0307417  46.1210158
 113.7530713  79.5184803  46.4520401 114.7434730  79.5907799  45.3093435
 113.9907976  90.9391928  45.8259309 114.2830950  91.4996985  45.1071674
 114.5006597  91.2320489  46.5812468 114.5919584  72.8083669  46.7151927
 114.8978460  71.9481033  46.4277842 115.3172189  73.4001289  46.5150921
 100.8843940  83.2114356  45.1033525 100.6868340  82.6183717  44.3784592
 100.3290604  82.9066566  45.8209464 108.8640663  83.1037462  47.2228118
 108.9189273  82.1511299  47.1470595 108.0531865  83.2596901  47.7069417
 110.0131857  87.0317585  38.4606402 109.5751287  86.3153444  38.0012039
 110.7542298  87.2593700  37.8991493 106.8033023  81.7214522  44.9818497
 105.9900889  82.0208693  45.3883689 107.2992018  81.3270211  45.6992980
 108.9541601  91.7172279  46.9152762 108.9117780  91.9433125  45.9861294
 109.8704300  91.4835654  47.0638563 112.4007235  82.1856347  53.8133391
 112.7556623  82.4127820  54.6727857 113.0479366  82.5174723  53.1910647
 118.1304972  85.3074782  44.5182720 117.9922871  85.4976378  43.5903909
 117.7741191  86.0694165  44.9750771 106.2947098  79.2932878  50.5979732
 106.9346477  79.1521637  49.9002696 105.4624629  79.0067391  50.2218334
 118.1574352  87.3751309  49.5293992 118.5910858  87.2826599  50.3777046
 118.8705932  87.3508810  48.8914008 107.0707402  88.5935308  46.7114725
 107.8648001  88.0985628  46.5097300 106.3599094  88.0653171  46.3482430
 111.8902246  90.9753404  51.0627092 111.9439269  91.5444340  51.8304808
 111.0217028  91.1455289  50.6981129 103.3790165  82.7378390  42.7874477
 102.4487754  82.6762845  43.0044440 103.4747637  82.2154342  41.9911119
 103.2975715  79.2633203  45.3752719 103.5582532  80.1778536  45.2661880
 104.1192887  78.7957645  45.5249332 104.7700640  80.6770960  52.5451544
 105.4423693  80.4688322  51.8964193 103.9430426  80.4793046  52.1056776
 119.0189901  87.4175010  52.0626877 119.2125791  88.3220821  52.3086152
 118.9190519  86.9582429  52.8965462 110.6726212  77.3032901  54.5617204
 110.0254127  78.0022850  54.4681681 111.4427227  77.7369045  54.9293453
 114.0805010  87.5681753  57.6367758 113.9290516  87.3392305  56.7197841
 114.0709689  88.5252354  57.6499103 110.8490346  85.1413666  52.6214024
 111.7782406  85.2924825  52.4482992 110.4281376  85.2297686  51.7662671
 109.6478678  89.1664330  50.3912562 109.5089764  88.7983114  51.2638500
 108.8593274  89.6811969  50.2196520 110.2426830  94.2673426  41.7338098
 110.4178586  93.7961470  42.5483721 109.5559618  94.8939193  41.9619359
 111.1983893  88.5445933  47.7801400 110.8633726  88.5046703  48.6759049
 110.6987839  87.8790649  47.3071810 105.1728137  83.9513563  53.3053981
 105.0347935  83.2193802  53.9065520 106.0833061  83.8622463  53.0238169
 114.1343085  85.8901967  38.0538459 113.5172255  85.1648795  37.9571512
 113.6659573  86.6511327  37.7105534 107.8010438  83.6633522  52.7937660
 108.5110056  83.0226714  52.7524279 107.7579746  83.9146417  53.7163841
 115.7897216  90.6000875  55.7144240 115.7309763  89.9160096  55.0474823
 116.1916735  91.3419865  55.2624866 106.5139372  80.6498740  54.6133300
 105.9776729  80.1989478  55.2654896 105.9256080  80.7844649  53.8703764
 104.8087915  97.4162789  48.5077959 105.0484513  98.0481313  49.1856977
 103.9657112  97.0650829  48.7943318 105.9241631  80.1087391  37.1759764
 105.0471097  79.9876192  36.8122010 106.3999384  79.3173470  36.9238652
 115.7914624  88.5640459  53.9458219 114.9041402  88.2266381  54.0684618
 116.3613175  87.8323491  54.1826985  97.4443771  84.8964551  47.2701271
  98.1314811  84.5826281  46.6822286  97.2891900  85.8005916  46.9968522
 102.2478493  79.7854748  51.6986294 102.1636682  79.1780417  50.9636704
 101.4261199  80.2763766  51.6995791 109.3215777  93.2241912  50.9119463
 109.2485949  94.0296883  51.4238767 108.8793170  93.4233877  50.0867484
 109.1105557  92.4613682  44.4222284 108.3273079  93.0035362  44.5160509
 109.8098302  92.9787661  44.8216525 112.4202207  78.2708311  47.0656489
 112.9170906  77.5178273  46.7457560 111.6489188  78.3072628  46.4999699
 120.2731964  83.9748677  48.7074781 120.2621841  84.8573392  48.3368714
 119.4049344  83.6220228  48.5129318 111.7814461  93.1228746  53.0677621
 112.4942433  93.7576211  52.9953523 111.2904489  93.2192612  52.2517623
 113.5031988  87.0279998  44.6394913 112.5688266  87.1481461  44.4699617
 113.6808656  86.1252465  44.3754923 109.0037176  80.4125694  46.7928174
 108.6334963  79.8596735  47.4809080 109.4996268  79.8083828  46.2403174
 116.8904539  82.8697318  45.1744947 117.3564991  83.7025309  45.1005250
 117.3412039  82.4042299  45.8790205 106.8326374  90.8723189  53.8883192
 107.5335834  91.5059672  54.0412586 106.3621489  91.2137921  53.1278831
 114.9580770  89.2141139  42.1731099 115.2340614  89.0997734  43.0824973
 114.0885269  88.8158624  42.1343272 114.8621202  75.2377905  49.2135848
 113.9484281  75.4682131  49.3818055 115.2914303  75.3216349  50.0649881
 114.6327660  83.4267797  51.7135742 113.9799110  83.6743704  51.0588195
 115.0108040  82.6131935  51.3798220 111.5934834  93.4627490  45.8163913
 111.7757229  92.6449146  46.2791665 112.4167820  93.6795182  45.3788803
 111.9277000  92.3895675  43.0778961 112.4564766  91.8788130  42.4649123
 112.1905219  92.0738205  43.9424494 110.6815233  84.1687608  58.2001779
 110.0055870  84.0681737  58.8704155 111.5042867  84.0126821  58.6637777
 102.4294092  90.4059544  50.8214295 103.0147529  89.6603232  50.9542199
 102.2318931  90.7163501  51.7050959 105.2832747  93.4410792  45.8376737
 104.6143123  93.9256919  45.3540777 105.1445617  93.6880012  46.7520116
  97.0211747  82.9765144  49.5418738  97.0595846  82.4428735  50.3355856
  96.5152040  82.4500350  48.9229715 109.4238016  95.4754535  52.4359395
 109.9756324  95.6386157  53.2008481 109.7644210  96.0658973  51.7639420
 104.4002509  77.8229685  53.0381280 104.4643836  78.6844516  52.6258678
 104.3369630  77.2103687  52.3053639 103.8754782  79.8952817  56.6854314
 104.5026821  79.5129895  57.2991839 103.0182701  79.6767019  57.0510007
 114.2748890  90.3015793  58.2908050 114.8188794  90.9145751  57.7963005
 113.6935735  90.8595371  58.8075063 100.6520325  81.7029247  42.6172669
 100.9473766  80.7939925  42.5639723  99.7508360  81.6816986  42.2953672
 112.5606403  93.4236511  49.4223078 112.4357543  92.6226250  48.9134023
 113.2185494  93.9182704  48.9337048 104.1814572  79.7785243  48.6000218
 103.4601157  80.3921211  48.4607691 104.9707827  80.3143008  48.5216864
 114.6241312  91.2245531  51.0502628 113.6771647  91.1050882  50.9780954
 114.9724085  90.3368029  51.1328889 106.9840885  77.1139670  54.8740870
 107.5075287  77.3601966  55.6367179 106.7653218  77.9459704  54.4544007
 102.3808166  79.3843344  42.7411994 102.0520872  78.5040723  42.5587100
 102.7347537  79.3291013  43.6288384 111.6287745  91.0198247  47.2506980
 111.4812707  90.0914954  47.4314550 112.4541239  91.0418338  46.7664055
 105.4949989  79.6716314  43.1087472 105.8346062  80.2002235  42.3866080
 105.9422110  80.0096720  43.8846039 115.2321867  91.8426806  48.3371853
 116.1568414  91.6369667  48.1996304 115.0637170  91.5943207  49.2461194
 108.1893430  78.0553365  52.5590540 107.8490250  77.2561178  52.9611220
 107.4832436  78.3555076  51.9867373 108.8409902  75.1402677  51.0117863
 109.6635971  74.6663155  50.8896753 109.0847965  75.9193161  51.5116549
 107.4818136  78.1690936  41.3080765 108.2026499  78.5472188  40.8044482
 106.8583441  78.8879812  41.4115743 111.6249259  78.8736085  42.2439097
 111.8412874  79.7560722  41.9427925 111.1443326  78.4822298  41.5144739
 106.3648481  81.8321798  48.8209842 106.2193061  82.1462101  49.7134123
 105.8873684  82.4506698  48.2680740 108.2244864  78.8224346  48.8690731
 108.2106432  77.9265439  48.5323029 108.9417292  78.8295010  49.5029017
 110.0770994  79.2561686  50.9143859 109.8188772  80.1778757  50.9128189
 109.5456035  78.8592121  51.6044323 115.0217183  92.3612473  43.6933944
 115.1954061  91.7958896  42.9407797 115.5146074  93.1613368  43.5113434
 100.8394143  84.3727142  51.7597503 100.2947611  85.1486950  51.8917777
 101.7173493  84.7197947  51.6016624 107.6281760  77.7038726  44.1378301
 107.7497671  76.7755372  44.3369189 107.3383802  77.7177412  43.2256617
 110.4972950  75.3893637  47.2745021 110.5194647  75.4532970  46.3197001
 110.9141009  74.5498145  47.4685527 120.8756574  85.1248896  45.3124244
 121.3187720  84.3756221  44.9143367 119.9983085  85.1159032  44.9297976
 116.0092356  91.6779238  40.7930842 116.7043260  92.2985930  41.0118157
 116.3515506  90.8274589  41.0683220 101.6260165  83.4997038  54.6527660
 100.8841901  83.6479674  55.2392290 101.3052909  83.7605304  53.7894409
 117.9083779  89.1278943  42.3218173 118.4335103  89.4666216  41.5967493
 117.8206131  88.1925958  42.1381308 109.5703827  93.0413017  54.4508050
 109.8790954  92.7962163  55.3230749 110.3679309  93.2459655  53.9626920
 109.5924439  95.1950926  46.6813426 109.1529430  94.7027305  47.3746283
 110.3432556  94.6523894  46.4405502 102.0716778  91.3862467  46.6838054
 102.8974798  91.0866239  46.3036698 101.7210830  90.6170090  47.1327843
 107.0398312  90.7388935  48.7535728 106.4178321  90.0759640  48.4537956
 107.7103178  90.7650067  48.0709376 100.2725383  89.3048794  47.6426988
  99.4357292  88.8770968  47.4610989 100.2449029  89.4981237  48.5797779
 107.1122839  79.2170723  58.3468234 107.1610995  80.0932846  57.9646004
 107.6545353  78.6748116  57.7739877 117.5977685  89.7611847  57.6269371
 116.8073228  89.7435986  57.0873871 117.3611039  90.3000140  58.3818408
 117.7175560  86.6104313  54.9402100 117.7673565  86.4454321  55.8817622
 117.6089483  85.7431572  54.5499980 106.6011818  89.2892859  42.2294189
 106.7499939  89.9728323  41.5760861 107.4078262  89.2697949  42.7443644
 115.0079322  82.5935241  56.2561406 115.9089185  82.4541706  55.9645404
 115.0827297  82.7589696  57.1959584 109.3422128  79.9702096  55.1014593
 108.4725437  80.2635662  54.8297181 109.5781608  80.5542541  55.8221856
 119.2193757  89.0301255  55.1844121 118.9278565  89.3931235  56.0207582
 118.6065888  88.3168263  55.0057453 120.4189439  86.5954134  47.7046691
 121.2536330  87.0343938  47.8684252 120.5548568  86.1192788  46.8854937
 117.4680945  84.1533869  53.6524179 117.9435066  84.3461516  52.8443031
 116.5446510  84.2093055  53.4067563 104.3564451  85.3158036  43.2355257
 104.1110493  84.4120366  43.4335468 104.5260366  85.3175187  42.2934735
 112.0461161  76.1881713  52.6180013 112.5643105  76.9242740  52.2926502
 111.6916294  76.4945706  53.4526772 103.6260099  81.0486394  40.7341419
 102.9329344  81.1230749  40.0781455 103.3811851  80.2846738  41.2562936
 112.2973756  72.6081995  48.1380910 112.5775509  71.9405184  48.7641336
 113.0824362  72.8011091  47.6255573 110.1007224  91.7840989  39.7005936
 109.5281191  92.4031176  39.2476408 110.6740018  92.3340351  40.2345858
 116.1682614  81.0299629  51.8852485 117.1200037  81.1297727  51.9064709
 115.9986064  80.2377898  52.3950569 114.1896993  78.1155213  52.0711886
 113.5946925  78.3960225  51.3758374 113.9046690  78.6049113  52.8428627
 113.3204484  92.0678139  40.8314518 114.2535157  92.0023701  41.0347394
 113.2327697  92.9034406  40.3729051 115.9492500  91.3844010  37.7918466
 115.8706132  91.0503873  38.6854224 116.7702167  91.8765778  37.7909938
 118.6470692  84.2505749  50.9994784 118.6147012  83.3121750  51.1854468
 119.2571315  84.3289786  50.2660609 110.4854023  83.1201802  37.0421988
 111.4313127  82.9908010  37.1110406 110.1068267  82.3816464  37.5191417
 118.7965180  81.0416792  51.0453068 118.2804229  80.2575249  50.8582996
 119.6805129  80.7135509  51.2099587 116.4575907  74.7857808  47.0048880
 116.2600728  74.4772896  47.8892212 117.0675613  75.5119447  47.1346810
 110.3692715  87.1719548  58.5022645 111.2895725  87.3498147  58.6962692
 110.3342298  86.2275593  58.3502345 108.6696940  81.0451778  36.9776874
 107.7628395  80.7484891  37.0539587 108.9472921  80.7481596  36.1111160
  99.5874880  82.3658142  47.4275920  99.2677664  81.5123450  47.1350294
  99.0408308  82.5806720  48.1833887 103.3654788  85.0820583  51.1445427
 103.5840797  86.0137691  51.1633460 103.7780561  84.7228557  51.9300230
 110.2859005  75.5888668  43.1321115 109.4759734  75.2435753  43.5076361
 110.9743422  75.2796212  43.7208727 112.2149554  74.6666715  44.7545412
 112.7680592  75.0862168  45.4135435 112.4519640  73.7402463  44.7968368
 108.2382653  80.6553789  60.5348176 108.1379380  81.6048145  60.4660267
 108.0204195  80.3272027  59.6624246 107.4395724  77.9038714  37.1188853
 108.3014888  78.2293612  37.3784670 107.6246068  77.1170209  36.6061919
  99.4563140  85.9861053  49.3969042  98.7626611  85.5715006  48.8838996
 100.2036131  86.0281590  48.8002461 115.5928361  76.7767240  44.2624076
 115.0127030  77.4352044  43.8802128 115.3264293  75.9544585  43.8511493
 114.0431927  76.1772298  46.4645396 114.5431705  76.2888832  45.6559715
 114.6867535  75.8733351  47.1046205 108.1013923  84.0850927  59.3513237
 107.6181005  84.8851287  59.5577126 108.1874862  84.0958872  58.3980681
 101.3699883  85.9179307  47.2735057 101.3470571  86.0166994  46.3216940
 101.6800519  86.7644458  47.5952223 104.0287260  87.9755462  51.3881671
 104.9830514  87.9439404  51.3211603 103.8299784  87.5146086  52.2031897
 104.6186643  86.5456578  53.9552469 105.4379532  87.0400657  53.9787306
 104.8923450  85.6288546  53.9270036 114.3753239  78.9367330  43.3180424
 113.4879094  79.2216981  43.1000619 114.7907228  78.7761094  42.4707701
 117.7267775  78.9613851  47.0334763 118.5028165  79.4510304  47.3059380
 117.0015909  79.3871906  47.4906633 120.1640334  79.6741471  48.0908704
 120.7584824  79.4337207  47.3802012 120.2366917  78.9548601  48.7182240
 102.3837489  93.5175082  48.4051869 102.2491957  92.7575482  47.8389867
 101.9669552  94.2415981  47.9380658 113.5196452  88.7012005  37.4128444
 114.2232302  88.9062008  38.0286100 112.7959101  89.2688767  37.6777528
 114.3494263  84.4521866  43.5330714 114.2929464  84.9090418  42.6938347
 114.9022605  83.6912551  43.3553557 118.1599068  80.2411598  44.3580834
 117.9036003  79.8408234  45.1889041 117.5351936  80.9555392  44.2330973
 122.4711406  82.9807671  46.8652125 121.9110964  83.0500861  47.6383687
 121.8654910  82.8048656  46.1451621 105.5406615  94.4144399  48.6170311
 105.4238999  95.3589831  48.5149002 104.7199061  94.1117960  49.0056111
 115.4283150  89.1394534  39.4626904 116.2628754  88.7075733  39.2804379
 115.2667493  88.9676548  40.3903799 115.0829042  85.6426648  40.8283243
 115.0277846  85.4770919  39.8871688 114.4575097  86.3502681  40.9845433
  99.8721557  80.8794712  54.6544666 100.5180420  80.3693666  55.1431891
  99.6638708  81.6163394  55.2288091 112.3974949  87.9475559  60.1536806
 113.2666109  88.1216212  59.7923441 111.9181700  88.7669976  60.0312536
 108.3925167  75.1434757  40.4068562 108.3803837  76.0876597  40.5636833
 109.2848589  74.9604902  40.1128023 106.5661129  95.0672660  51.8326240
 107.4688376  95.0996271  52.1492735 106.3398499  94.1373111  51.8472576
 108.3214731  93.8203647  48.4936319 107.3710362  93.8205509  48.3800691
 108.6247217  93.0736382  47.9772353 112.2077287  71.7377533  44.6614499
 111.4409683  71.1836020  44.8071181 112.6187992  71.8099402  45.5228650
 104.2119048  78.0262329  58.7519680 105.0750509  77.6699134  58.9623005
 103.6384458  77.6876224  59.4395084 120.8657131  99.6091614  49.4943606
 120.5275643  99.4932678  48.6064140 121.7346899  99.2082779  49.4744612
 116.7243947 101.4627090  45.4840497 116.1608812 101.3717027  44.7156784
 116.6096342 100.6426994  45.9642989 121.3476914 100.7626465  55.4529811
 121.3365555 100.3679264  54.5810315 121.5097553 100.0292538  56.0463583
 114.2708379 102.9578282  48.3224717 115.0629671 102.6169106  47.9071016
 114.5105029 103.0673257  49.2426870 116.2299133 102.2187195  41.1942096
 117.0030009 101.6716182  41.0554972 116.5824531 103.0831444  41.4056557
 118.0684175 103.5463577  54.4008995 117.7774041 104.4509208  54.2855661
 118.7041160 103.5880105  55.1153065 118.9940382 100.9240426  50.9910355
 119.5903954 100.6996448  50.2767318 119.0515354 100.1825171  51.5935803
 118.5665410  98.3779861  38.8260546 118.8190931  97.8561382  38.0644009
 117.6289970  98.2146006  38.9287229 118.2861699 100.2807967  41.0284921
 118.1697957  99.6052870  41.6966005 118.3963959  99.7940341  40.2117074
 120.6293240  99.7418114  44.7331610 120.2651447  99.2148735  45.4444531
 121.4860356  99.3516583  44.5598095 120.2698727  94.7708014  39.7292958
 120.4373129  95.6388250  40.0963429 120.0795896  94.9335295  38.8054248
 116.4786542  99.6838789  47.4295493 115.5537038  99.5515003  47.6373185
 116.7270955 100.4633009  47.9265436 120.2487948  97.2265671  40.7139625
 120.1287573  97.6722722  41.5525106 119.5540536  97.5750989  40.1553163
 113.8395353  99.3272063  48.2639282 113.9687734  99.5806542  49.1778694
 113.1592804  99.9199771  47.9443937 120.5012070  97.1697178  57.0191123
 119.7245404  97.7291098  57.0093988 121.1402633  97.6553961  57.5405994
 118.7558442  99.9782632  56.5809090 119.4973126 100.5167676  56.3043914
 118.0495428 100.6048920  56.7380642 120.5844852  97.0584379  52.5514809
 121.4306047  97.4823792  52.6949458 120.5243489  96.4018003  53.2453372
 120.1070558 102.4187371  46.1983626 120.5708904 102.6975074  45.4088248
 119.8427356 101.5170815  46.0156717 116.9994639 101.9658852  49.1363389
 117.5695996 102.3946121  48.4980874 117.5902751 101.6841437  49.8347575
 119.0439444  98.5410523  43.0073191 119.7463488  98.9931567  43.4747117
 118.7120073  97.8994342  43.6353084 117.4919806  97.1322280  57.3824400
 116.8618466  97.8138561  57.6159797 117.3855894  97.0205361  56.4377539
 112.7864778  96.7994076  48.3090325 111.9963832  97.0551604  47.8330435
 113.2776026  97.6142414  48.4142365 114.7379524  97.1638655  45.2673801
 113.9410687  97.2757349  45.7857297 114.5105116  97.5025307  44.4014692
 120.5685191 103.6883358  53.2156316 120.6329624 104.1503766  54.0514488
 119.8596115 103.0580723  53.3438626 111.0702481  97.0524566  50.7405315
 111.3210520  97.9371576  51.0062891 111.6062030  96.8729168  49.9680407
 120.2833209 105.3551466  43.0835296 120.1478884 106.2003002  43.5120144
 120.8243021 105.5570743  42.3201230 116.7700549  91.4343046  59.7449651
 116.3767494  90.8809244  60.4197296 117.5866689  91.7453624  60.1356169
 113.7362606 102.8726904  43.6563221 114.2487127 103.6670154  43.8068786
 114.3885319 102.1753194  43.5896823 115.5457491 105.9892660  45.7385974
 115.7224119 106.9110625  45.5506958 116.3414325 105.6751079  46.1680354
 119.6868510  92.8500925  57.3369908 120.4278223  93.4508078  57.2574370
 119.9186432  92.1078563  56.7787951 114.8309848  98.0357292  55.6148138
 114.7163363  97.1342549  55.9155237 113.9754365  98.2820989  55.2632954
 116.6688807 107.5070834  51.7396317 117.2196232 107.3787897  50.9673311
 115.8300282 107.8065723  51.3891210 120.4655978 103.7721962  56.0840548
 120.9984314 103.0110250  55.8539856 119.9370059 103.4795614  56.8264702
 111.7011523 101.2015558  44.4322792 112.5386745 101.6112567  44.2156500
 111.8789791 100.2615000  44.4022986 121.1823066  93.7140340  45.1791863
 120.3264663  93.3247190  44.9997502 121.5950018  93.7932300  44.3191649
 118.9565099  91.3325413  48.5849605 119.8218096  91.1368221  48.2255494
 119.0242608  91.1035764  49.5118961 121.8308690 102.9007954  43.5959360
 121.3030052 102.1660714  43.2832597 121.3296193 103.6782631  43.3499328
 116.5627418  93.5627621  45.9565971 117.1371170  93.3402802  45.2239164
 117.1498400  93.6316315  46.7094573 116.8897005  95.5932082  39.9761857
 116.0534317  95.9306768  40.2971131 116.7501775  95.4581061  39.0388994
 118.8650086  90.4368869  44.6841041 118.2114498  90.1217887  44.0597656
 118.8230560  89.8144610  45.4100864 119.9761290 100.7188165  36.5994333
 119.0688352 100.4877418  36.7985482 120.4732322  99.9225784  36.7868315
 121.1549524 100.8200759  41.1218323 120.2460743 100.5359792  41.2190793
 121.1844608 101.2399838  40.2621630 111.7237694  98.5406274  45.1033525
 111.5262094  97.9475634  44.3784592 111.1684358  98.2358484  45.8209464
 119.7034418  98.4329380  47.2228118 119.7583028  97.4803216  47.1470595
 118.8925620  98.5888819  47.7069417 120.8525612 102.3609503  38.4606402
 120.4145042 101.6445362  38.0012039 121.5936053 102.5885618  37.8991493
 117.6426778  97.0506440  44.9818497 116.8294643  97.3500610  45.3883689
 118.1385772  96.6562129  45.6992980 117.1340853  94.6224795  50.5979732
 117.7740232  94.4813554  49.9002696 116.3018383  94.3359309  50.2218334
 117.9101157 103.9227226  46.7114725 118.7041755 103.4277546  46.5097300
 117.1992849 103.3945089  46.3482430 114.2183920  98.0670307  42.7874477
 113.2881508  98.0054763  43.0044440 114.3141392  97.5446260  41.9911119
 114.1369469  94.5925120  45.3752719 114.3976286  95.5070453  45.2661880
 114.9586641  94.1249563  45.5249332 115.6094394  96.0062877  52.5451544
 116.2817448  95.7980240  51.8964193 114.7824181  95.8084963  52.1056776
 121.5119966  92.6324818  54.5617204 120.8647881  93.3314768  54.4681681
 122.2820982  93.0660962  54.9293453 120.4872433 104.4956248  50.3912562
 120.3483518 104.1275032  51.2638500 119.6987029 105.0103887  50.2196520
 122.0377648 103.8737850  47.7801400 121.7027480 103.8338620  48.6759049
 121.5381593 103.2082566  47.3071810 116.0121892  99.2805480  53.3053981
 115.8741690  98.5485719  53.9065520 116.9226815  99.1914380  53.0238169
 118.6404192  98.9925440  52.7937660 119.3503811  98.3518632  52.7524279
 118.5973500  99.2438335  53.7163841 117.3533126  95.9790658  54.6133300
 116.8170483  95.5281396  55.2654896 116.7649835  96.1136566  53.8703764
 116.7635385  95.4379309  37.1759764 115.8864852  95.3168110  36.8122010
 117.2393138  94.6465387  36.9238652 108.2837525 100.2256469  47.2701271
 108.9708565  99.9118199  46.6822286 108.1285654 101.1297833  46.9968522
 113.0872247  95.1146665  51.6986294 113.0030436  94.5072335  50.9636704
 112.2654954  95.6055684  51.6995791 119.8430930  95.7417612  46.7928174
 119.4728718  95.1888652  47.4809080 120.3390023  95.1375745  46.2403174
 117.6720129 106.2015107  53.8883192 118.3729588 106.8351590  54.0412586
 117.2015244 106.5429838  53.1278831 121.5208988  99.4979525  58.2001779
 120.8449625  99.3973655  58.8704155 122.3436622  99.3418739  58.6637777
 113.2687847 105.7351462  50.8214295 113.8541284 104.9895150  50.9542199
 113.0712685 106.0455419  51.7050959 116.1226502 108.7702709  45.8376737
 115.4536877 109.2548837  45.3540777 115.9839372 109.0171930  46.7520116
 107.8605501  98.3057062  49.5418738 107.8989601  97.7720653  50.3355856
 107.3545794  97.7792268  48.9229715 115.2396264  93.1521603  53.0381280
 115.3037590  94.0136433  52.6258678 115.1763384  92.5395604  52.3053639
 114.7148536  95.2244735  56.6854314 115.3420575  94.8421812  57.2991839
 113.8576455  95.0058937  57.0510007 111.4914079  97.0321164  42.6172669
 111.7867520  96.1231843  42.5639723 110.5902115  97.0108904  42.2953672
 115.0208326  95.1077161  48.6000218 114.2994912  95.7213129  48.4607691
 115.8101582  95.6434926  48.5216864 117.8234640  92.4431587  54.8740870
 118.3469041  92.6893884  55.6367179 117.6046973  93.2751622  54.4544007
 113.2201921  94.7135262  42.7411994 112.8914627  93.8332641  42.5587100
 113.5741291  94.6582931  43.6288384 116.3343744  95.0008232  43.1087472
 116.6739816  95.5294153  42.3866080 116.7815864  95.3388638  43.8846039
 119.0287185  93.3845282  52.5590540 118.6884005  92.5853095  52.9611220
 118.3226191  93.6846993  51.9867373 119.6803656  90.4694595  51.0117863
 120.5029726  89.9955073  50.8896753 119.9241720  91.2485079  51.5116549
 118.3211891  93.4982853  41.3080765 119.0420253  93.8764106  40.8044482
 117.6977195  94.2171730  41.4115743 117.2042235  97.1613715  48.8209842
 117.0586816  97.4754019  49.7134123 116.7267439  97.7798616  48.2680740
 119.0638618  94.1516263  48.8690731 119.0500187  93.2557357  48.5323029
 119.7811046  94.1586927  49.5029017 120.9164749  94.5853604  50.9143859
 120.6582527  95.5070674  50.9128189 120.3849789  94.1884038  51.6044323
 111.6787897  99.7019060  51.7597503 111.1341365 100.4778868  51.8917777
 112.5567247 100.0489864  51.6016624 118.4675514  93.0330644  44.1378301
 118.5891425  92.1047290  44.3369189 118.1777556  93.0469330  43.2256617
 121.3366704  90.7185554  47.2745021 121.3588401  90.7824887  46.3197001
 121.7534763  89.8790063  47.4685527 112.4653919  98.8288956  54.6527660
 111.7235655  98.9771592  55.2392290 112.1446664  99.0897222  53.7894409
 112.9110533 106.7154385  46.6838054 113.7368553 106.4158157  46.3036698
 112.5604585 105.9462007  47.1327843 117.8792066 106.0680853  48.7535728
 117.2572075 105.4051558  48.4537956 118.5496933 106.0941985  48.0709376
 111.1119138 104.6340711  47.6426988 110.2751046 104.2062886  47.4610989
 111.0842783 104.8273155  48.5797779 117.9516594  94.5462641  58.3468234
 118.0004749  95.4224764  57.9646004 118.4939108  94.0040034  57.7739877
 117.4405573 104.6184776  42.2294189 117.5893693 105.3020241  41.5760861
 118.2472016 104.5989867  42.7443644 120.1815882  95.2994014  55.1014593
 119.3119191  95.5927580  54.8297181 120.4175362  95.8834459  55.8221856
 115.1958206 100.6449954  43.2355257 114.9504248  99.7412284  43.4335468
 115.3654120 100.6467105  42.2934735 114.4653853  96.3778312  40.7341419
 113.7723098  96.4522667  40.0781455 114.2205605  95.6138655  41.2562936
 121.3247777  98.4493720  37.0421988 122.2706882  98.3199928  37.1110406
 120.9462022  97.7108382  37.5191417 121.2086470 102.5011466  58.5022645
 122.1289479 102.6790065  58.6962692 121.1736053 101.5567511  58.3502345
 119.5090694  96.3743696  36.9776874 118.6022150  96.0776809  37.0539587
 119.7866675  96.0773514  36.1111160 110.4268635  97.6950059  47.4275920
 110.1071419  96.8415368  47.1350294 109.8802063  97.9098638  48.1833887
 114.2048542 100.4112500  51.1445427 114.4234552 101.3429608  51.1633460
 114.6174316 100.0520475  51.9300230 121.1252760  90.9180586  43.1321115
 120.3153488  90.5727671  43.5076361 121.8137177  90.6088129  43.7208727
 119.0776407  95.9845706  60.5348176 118.9773134  96.9340063  60.4660267
 118.8597949  95.6563945  59.6624246 118.2789479  93.2330631  37.1188853
 119.1408643  93.5585530  37.3784670 118.4639823  92.4462127  36.6061919
 110.2956895 101.3152971  49.3969042 109.6020366 100.9006924  48.8838996
 111.0429886 101.3573507  48.8002461 118.9407677  99.4142845  59.3513237
 118.4574759 100.2143205  59.5577126 119.0268616  99.4250790  58.3980681
 112.2093637 101.2471225  47.2735057 112.1864325 101.3458912  46.3216940
 112.5194274 102.0936376  47.5952223 114.8681015 103.3047380  51.3881671
 115.8224268 103.2731322  51.3211603 114.6693539 102.8438003  52.2031897
 115.4580397 101.8748496  53.9552469 116.2773286 102.3692574  53.9787306
 115.7317205 100.9580464  53.9270036 113.2231244 108.8466999  48.4051869
 113.0885712 108.0867400  47.8389867 112.8063306 109.5707899  47.9380658
 110.7115311  96.2086630  54.6544666 111.3574175  95.6985584  55.1431891
 110.5032462  96.9455311  55.2288091 119.2318922  90.4726674  40.4068562
 119.2197592  91.4168514  40.5636833 120.1242344  90.2896820  40.1128023
 115.0512802  93.3554247  58.7519680 115.9144264  92.9991052  58.9623005
 114.4778213  93.0168142  59.4395084  52.9732314  -4.9720071  31.0875063
  52.8956344  -4.0212245  31.1663544  52.3693958  -5.3174198  31.7449989
  50.6119144  -2.2234677  35.2323265  50.8515742  -1.5916152  35.9102284
  49.7688341  -2.5746637  35.5188624  51.0863976  -6.1986674  32.5622044
  50.4174352  -5.7140547  32.0786084  50.9476846  -5.9517454  33.4765422
  55.2269245  -4.1642931  39.1604702  55.7787553  -4.0011309  39.9253787
  55.5675438  -3.5738493  38.4884727  55.3955668  -4.4446539  33.4058733
  54.9560659  -4.9370161  34.0991590  56.1463785  -4.9873572  33.1650808
  48.1868718  -6.1222384  35.1297175  48.0523186  -6.8821983  34.5635174
  47.7700780  -5.3981484  34.6625964  51.3437844  -5.2253067  35.3415618
  51.2270228  -4.2807635  35.2394308  50.5230290  -5.5279506  35.7301417
  52.3692358  -4.5724805  38.5571547  53.2719605  -4.5401195  38.8738042
  52.1429728  -5.5024354  38.5717882  66.6688360  -0.0305852  36.2188912
  66.3306871  -0.1464788  35.3309447  67.5378128  -0.4314687  36.1989918
  62.5275176   1.8229624  32.2085803  61.9640041   1.7319561  31.4402091
  62.4127571   1.0029529  32.6888296  67.1508143   1.1228999  42.1775118
  67.1396784   0.7281798  41.3055621  67.3128782   0.3895072  42.7708889
  60.0739607   3.3180816  35.0470024  60.8660899   2.9771640  34.6316323
  60.3136258   3.4275791  35.9672177  68.1074734   5.4900592  27.5200268
  67.4562714   6.0754672  27.1334282  68.9019097   6.0206787  27.5795306
  62.0330361   2.5789729  27.9187402  62.8061237   2.0318716  27.7800278
  62.3855760   3.4433978  28.1301864  63.8715404   3.9066111  41.1254302
  63.5805270   4.8111742  41.0100968  64.5072388   3.9482639  41.8398371
  64.7971611   1.2842960  37.7155661  65.3935183   1.0598982  37.0012624
  64.8546582   0.5427705  38.3181109  64.3696639  -1.2617605  25.5505852
  64.6222160  -1.7836084  24.7889315  63.4321198  -1.4251459  25.6532536
  69.5849999   3.1791024  28.0569252  68.9495832   3.2525650  28.7690157
  69.2547406   3.7684623  27.3788332  64.0892928   0.6410501  27.7530227
  63.9729186  -0.0344596  28.4211312  64.1995188   0.1542875  26.9362380
  66.4324469   0.1020648  31.4576917  66.0682676  -0.4248731  32.1689838
  67.2891585  -0.2880883  31.2843402  68.8305289   3.5927527  38.1204095
  68.5306012   4.4952566  38.0119903  68.4856349   3.3259710  38.9725248
  62.2817771   0.0441324  34.1540800  61.3568267  -0.0882462  34.3618492
  62.5302184   0.8235543  34.6510742  59.6426582  -0.3125403  34.9884589
  59.7718963  -0.0590924  35.9024001  58.9624033   0.2802305  34.6689244
  63.8126069  10.3571847  31.0875063  63.7350099  11.3079672  31.1663544
  63.2087712  10.0117720  31.7449989  64.5589671   0.3385166  43.3054397
  65.3004355   0.8770210  43.0289221  63.8526656   0.9651455  43.4625949
  70.0345011   2.4814306  41.9026559  70.4428367   2.0396717  41.1581191
  69.3122272   1.9066934  42.1560751  70.3573825   3.0415497  35.6578847
  69.7282688   3.2061211  34.9554915  69.9699487   3.4557107  36.4289811
  74.2363057   3.9769935  33.0123211  73.5514095   4.3568836  32.4620244
  74.3206906   4.5865261  33.7455159  71.4913989   1.6229894  39.6118555
  71.7030884   2.2661654  38.9352936  71.4443737   0.7892210  39.1440485
  65.9101787   2.7789905  32.9228933  66.3740133   3.0577608  32.1333555
  65.6458585   1.8773350  32.7402023  62.8025868   2.3261387  35.8608696
  63.3727225   2.7548655  35.2226180  63.3933980   2.0443971  36.5592881
  64.8470673  -1.0986943  29.7318498  65.5494716  -0.6465899  30.1992424
  64.5151302  -1.7403124  30.3598391  63.2951035  -2.5075186  44.1069707
  62.6649695  -1.8258905  44.3405104  63.1887123  -2.6192104  43.1622845
  58.5896007  -2.8403390  35.0335631  57.7995061  -2.5845861  34.5575742
  59.0807254  -2.0255052  35.1387672  72.6059817   4.5001849  37.7840912
  73.4277260   4.0982037  37.5023594  72.6022220   4.3970083  38.7357028
  60.5410752  -2.4758811  31.9919108  59.7441916  -2.3640116  32.5102604
  60.3136345  -2.1372158  31.1259998  66.3716420   4.0485893  39.9401623
  66.4360853   4.5106300  40.7759794  65.6627344   3.4183257  40.0683932
  56.8733710  -2.5872899  37.4650622  57.1241749  -1.7025890  37.7308198
  57.4093258  -2.7668298  36.6925714  66.0864438   5.7154000  29.8080603
  65.9510113   6.5605536  30.2365451  66.6274250   5.9173278  29.0446537
  59.5393835   3.2329438  30.3808528  60.0518356   4.0272688  30.5314093
  60.1916548   2.5355729  30.3142129  61.3488720   6.3495194  32.4631281
  61.5255348   7.2713159  32.2752265  62.1445553   6.0353614  32.8925661
  60.6341076  -1.6040174  42.3393444  60.5194592  -2.5054916  42.6400543
  59.7785594  -1.3576477  41.9878261  67.7132914   6.3377567  43.9380945
  67.2696768   5.5513945  43.6201849  68.3750128   6.5256717  43.2724836
  62.4720035   7.8673368  38.4641623  63.0227460   7.7390432  37.6918617
  61.6331511   8.1668257  38.1136516  69.8114152   6.6180367  41.9662346
  69.7932628   7.4389248  41.4742615  70.7334072   6.4934442  42.1912487
  66.2687206   4.1324496  42.8085855  66.8015543   3.3712784  42.5785163
  65.7401287   3.8398148  43.5510009  57.5042752   1.5618092  31.1568098
  58.3417974   1.9715101  30.9401806  57.6821020   0.6217535  31.1268292
  74.3741458   1.9825528  28.7805105  73.5970901   1.6436687  28.3360267
  75.0532939   1.9878151  28.1060070  67.6339919   3.2610488  30.3204667
  67.1061281   2.5263248  30.0077904  67.1327422   4.0385165  30.0744635
  72.6132765   1.4559509  35.4371713  71.9556440   2.1458770  35.5251842
  73.4173164   1.8455941  35.7805699  65.7792519   1.0790699  23.3239640
  64.8719581   0.8479952  23.5230789  66.2763551   0.2828318  23.5113621
  68.6860598   9.7888206  26.2436326  68.0122297  10.0919903  26.8521284
  69.0726420  10.5917286  25.8941783  66.9580753   1.1803294  27.8463630
  66.0491972   0.8962326  27.9436099  66.9875836   1.6002372  26.9866937
  72.1900020   4.7909883  31.6154797  71.7362347   3.9500793  31.6719988
  71.5593987   5.4271281  31.9529577  70.6332959   6.6286380  32.5504615
  70.9255934   7.1891437  31.8316981  71.1431580   6.9214941  33.3057775
  57.5268923  -1.0991192  31.8278832  57.3293323  -1.6921832  31.1029899
  56.9715587  -1.4038982  32.5454771  66.6556840   2.7212037  25.1851708
  66.2176270   2.0047896  24.7257346  67.3967281   2.9488152  24.6236800
  65.5966585   7.4066731  33.6398069  65.5542763   7.6327577  32.7106601
  66.5129283   7.1730105  33.7883870  74.7999335   3.0645761  36.2539298
  75.2335842   2.9721050  37.1022352  75.5130916   3.0403262  35.6159314
  63.7132385   4.2829760  33.4360031  64.5072984   3.7880080  33.2342606
  63.0024078   3.7547623  33.0727737  68.5327230   6.6647855  37.7872399
  68.5864252   7.2338792  38.5550115  67.6642011   6.8349740  37.4226436
  60.0215149  -1.5727158  29.5119784  59.0912737  -1.6342703  29.7289746
  60.1172621  -2.0951206  28.7156425  75.6614884   3.1069462  38.7872184
  75.8550775   4.0115272  39.0331459  75.5615503   2.6476881  39.6210769
  70.7229993   3.2576205  44.3613064  70.5715500   3.0286756  43.4443148
  70.7134673   4.2146806  44.3744409  67.4915330   0.8308117  39.3459331
  68.4207390   0.9819277  39.1728298  67.0706360   0.9192138  38.4907977
  66.2903661   4.8558782  37.1157868  66.1514747   4.4877566  37.9883807
  65.5018258   5.3706421  36.9441826  66.8851813   9.9567878  28.4583405
  67.0603569   9.4855922  29.2729028  66.1984601  10.5833645  28.6864666
  67.8408876   4.2340385  34.5046706  67.5058709   4.1941155  35.4004356
  67.3412822   3.5685100  34.0317116  61.8153120  -0.3591985  40.0299287
  61.6772918  -1.0911747  40.6310826  62.7258044  -0.4483085  39.7483475
  70.7768068   1.5796419  24.7783766  70.1597239   0.8543247  24.6816819
  70.3084557   2.3405779  24.4350840  64.4435421  -0.6472026  39.5182967
  65.1535040  -1.2878834  39.4769585  64.4004729  -0.3959131  40.4409148
  72.4322200   6.2895327  42.4389546  72.3734746   5.6054547  41.7720129
  72.8341718   7.0314317  41.9870172  61.4512899  13.1057241  35.2323265
  61.6909497  13.7375765  35.9102284  60.6082095  12.7545281  35.5188624
  72.4339607   4.2534911  40.6703526  71.5466386   3.9160833  40.7929925
  73.0038158   3.5217942  40.9072291  54.0868754   0.5859003  33.9946577
  54.7739794   0.2720733  33.4067593  53.9316883   1.4900368  33.7213829
  65.9640760   8.9136364  37.6364769  65.8910932   9.7191335  38.1484074
  65.5218154   9.1128329  36.8112791  65.7530540   8.1508134  31.1467591
  64.9698062   8.6929814  31.2405815  66.4523285   8.6682113  31.5461832
  68.4239444   8.8123198  39.7922928  69.1367416   9.4470662  39.7198829
  67.9329473   8.9087064  38.9762930  70.1456971   2.7174450  31.3640219
  69.2113250   2.8375913  31.1944924  70.3233639   1.8146917  31.1000229
  63.4751357   6.5617641  40.6128499  64.1760817   7.1954124  40.7657893
  63.0046472   6.9032373  39.8524138  71.6005753   4.9035591  28.8976406
  71.8765597   4.7892185  29.8070280  70.7310252   4.5053076  28.8588579
  68.2359817   9.1521942  32.5409219  68.4182212   8.3343598  33.0036972
  69.0592803   9.3689634  32.1034109  68.5701983   8.0790127  29.8024268
  69.0989749   7.5682581  29.1894430  68.8330202   7.7632657  30.6669801
  67.3240216  -0.1417940  44.9247086  66.6480853  -0.2423811  45.5949461
  68.1467850  -0.2978727  45.3883083  59.0719076   6.0953996  37.5459601
  59.6572512   5.3497684  37.6787506  58.8743914   6.4057953  38.4296265
  61.9257731   9.1305243  32.5622044  61.2568106   9.6151371  32.0786084
  61.7870600   9.3774464  33.4765422  53.6636730  -1.3340404  36.2664044
  53.7020830  -1.8676813  37.0601163  53.1577023  -1.8605198  35.6475022
  66.0662999  11.1648987  39.1604702  66.6181307  11.3280609  39.9253787
  66.4069193  11.7553425  38.4884727  70.9173874   5.9910245  45.0153356
  71.4613778   6.6040203  44.5208311  70.3360719   6.5489823  45.5320369
  57.2945308  -2.6076302  29.3417976  57.5898749  -3.5165623  29.2885030
  56.3933344  -2.6288562  29.0198978  69.2031387   9.1130963  36.1468384
  69.0782526   8.3120702  35.6379330  69.8610478   9.6077156  35.6582354
  71.2666295   6.9139983  37.7747934  70.3196631   6.7945334  37.7026261
  71.6149068   6.0262481  37.8574196  68.2712728   6.7092699  33.9752287
  68.1237691   5.7809406  34.1559857  69.0966222   6.7312790  33.4909362
  71.8746850   7.5321258  35.0617159  72.7993398   7.3264119  34.9241610
  71.7062154   7.2837659  35.9706501  63.0073464  -2.4783750  35.5455148
  62.8618045  -2.1643447  36.4379430  62.5298668  -1.8598850  34.9926047
  71.6642166   8.0506925  30.4179251  71.8379044   7.4853347  29.6653103
  72.1571058   8.8507820  30.2358741  57.4819126   0.0621594  38.4842810
  56.9372594   0.8381402  38.6163084  58.3598476   0.4092399  38.3261931
  72.6517339   7.3673689  27.5176149  73.3468243   7.9880382  27.7363464
  72.9940489   6.5169041  27.7928527  58.2685148  -0.8108510  41.3772966
  57.5266884  -0.6625874  41.9637597  57.9477892  -0.5500244  40.5139716
  74.5508762   4.8173395  29.0463480  75.0760086   5.1560668  28.3212800
  74.4631115   3.8820410  28.8626614  66.2128811   8.7307469  41.1753356
  66.5215937   8.4856615  42.0476056  67.0104293   8.9354107  40.6872227
  66.2349423  10.8845378  33.4058733  65.7954413  10.3921757  34.0991590
  66.9857540  10.3418346  33.1650808  58.7141762   7.0756919  33.4083361
  59.5399782   6.7760691  33.0282005  58.3635814   6.3064542  33.8573150
  63.6823295   6.4283387  35.4781035  63.0603304   5.7654092  35.1783262
  64.3528162   6.4544519  34.7954682  56.9150367   4.9943246  34.3672295
  56.0782275   4.5665420  34.1856296  56.8874012   5.1875689  35.3043086
  74.2402668   5.4506299  44.3514678  73.4498212   5.4330437  43.8119177
  74.0036023   5.9894592  45.1063714  74.3600543   2.2998765  41.6647406
  74.4098548   2.1348772  42.6062929  74.2514466   1.4326024  41.2745287
  63.2436802   4.9787311  28.9539495  63.3924922   5.6622775  28.3006168
  64.0503245   4.9592401  29.4688951  75.8618740   4.7195706  41.9089428
  75.5703548   5.0825687  42.7452889  75.2490871   4.0062715  41.7302760
  60.9989435   1.0052488  29.9600564  60.7535477   0.1014818  30.1580774
  61.1685349   1.0069639  29.0180042  66.7432207   7.4735441  26.4251243
  66.1706174   8.0925628  25.9721714  67.3165001   8.0234803  26.9591165
  69.9629467   7.7572591  27.5559825  70.8960140   7.6918153  27.7592700
  69.8752680   8.5928858  27.0974358  72.5917484   7.0738462  24.5163772
  72.5131115   6.7398325  25.4099530  73.4127151   7.5660229  24.5155245
  67.0117698   2.8614000  45.2267952  67.9320708   3.0392599  45.4207999
  66.9767281   1.9170045  45.0747651  56.2299863  -1.9447406  34.1521227
  55.9102648  -2.7982098  33.8595601  55.6833292  -1.7298828  34.9079194
  60.0079771   0.7715035  37.8690733  60.2265781   1.7032142  37.8878767
  60.4205545   0.4123009  38.6545537  56.0988123   1.6755505  36.1214348
  55.4051595   1.2609458  35.6084303  56.8461114   1.7176042  35.5247767
  64.7438906  -0.2254621  46.0758544  64.2605988   0.5745739  46.2822433
  64.8299845  -0.2146676  45.1225988  58.0124866   1.6073759  33.9980363
  57.9895554   1.7061446  33.0462246  58.3225502   2.4538910  34.3197529
  60.6712244   3.6649914  38.1126978  61.6255497   3.6333856  38.0456909
  60.4724767   3.2040538  38.9277204  61.2611626   2.2351030  40.6797775
  62.0804515   2.7295109  40.7032613  61.5348434   1.3182998  40.6515343
  59.0262473   9.2069533  35.1297175  58.8916940   8.4469934  34.5635174
  58.6094535   9.9310433  34.6625964  70.1621436   4.3906457  24.1373751
  70.8657286   4.5956459  24.7531406  69.4384084   4.9583219  24.4022834
  62.1831598  10.1038850  35.3415618  62.0663983  11.0484283  35.2394308
  61.3624045   9.8012412  35.7301417  72.0708133   4.8288986  26.1872211
  72.9053737   4.3970185  26.0049686  71.9092476   4.6571000  27.1149105
  71.7254025   1.3321099  27.5528550  71.6702829   1.1665371  26.6116994
  71.1000080   2.0397132  27.7090740  56.5146540  -3.4310836  41.3789972
  57.1605404  -3.9411882  41.8677198  56.3063691  -2.6942154  41.9533398
  69.0399932   3.6370011  46.8782113  69.9091092   3.8110664  46.5168748
  68.5606684   4.4564428  46.7557842  63.2086113  10.7567112  38.5571547
  64.1113359  10.7890723  38.8738042  62.9823483   9.8267563  38.5717882
  64.9639715   9.5098099  35.2181625  64.0135346   9.5099961  35.1045997
  65.2672201   8.7630833  34.7017660  80.6992408  15.3458637  36.2827388
  81.3370818  15.2265385  35.5790728  80.5813251  16.2939481  36.3415340
  77.5082114  15.2986065  36.2188912  77.1700626  15.1827130  35.3309447
  78.3771883  14.8977230  36.1989918  73.3668930  17.1521542  32.2085803
  72.8033795  17.0611479  31.4402091  73.2521325  16.3321446  32.6888296
  77.9901897  16.4520917  42.1775118  77.9790538  16.0573715  41.3055621
  78.1522537  15.7186990  42.7708889  70.9133362  18.6472733  35.0470024
  71.7054654  18.3063558  34.6316323  71.1530012  18.7567708  35.9672177
  78.9468489  20.8192510  27.5200268  78.2956468  21.4046590  27.1334282
  79.7412852  21.3498704  27.5795306  72.8724116  17.9081647  27.9187402
  73.6454992  17.3610634  27.7800278  73.2249515  18.7725896  28.1301864
  74.7109158  19.2358029  41.1254302  74.4199024  20.1403660  41.0100968
  75.3466143  19.2774557  41.8398371  75.6365365  16.6134877  37.7155661
  76.2328938  16.3890900  37.0012624  75.6940337  15.8719623  38.3181109
  75.2090394  14.0674313  25.5505852  75.4615914  13.5455834  24.7889315
  74.2714953  13.9040458  25.6532536  80.2533677  13.0710091  33.3580596
  81.0396766  12.6529514  33.0071013  80.5172381  13.9756183  33.5262244
  80.4243754  18.5082941  28.0569252  79.7889587  18.5817568  28.7690157
  80.0941160  19.0976540  27.3788332  85.6542104  13.0085324  34.2613574
  86.3867276  12.4384541  34.4951404  84.8981459  12.6206925  34.7020080
  74.9286682  15.9702419  27.7530227  74.8122941  15.2947322  28.4211312
  75.0388942  15.4834793  26.9362380  77.2718223  15.4312566  31.4576917
  76.9076431  14.9043187  32.1689838  78.1285339  15.0411035  31.2843402
  83.1767524   6.7206898  38.7208183  82.8450849   7.5902309  38.4969398
  82.5813137   6.4043182  39.4002213  76.9123710  10.4602466  26.4538265
  77.0798113  11.3282702  26.8208736  76.7220879  10.6229747  25.5299554
  79.6699044  18.9219444  38.1204095  79.3699767  19.8244483  38.0119903
  79.3250103  18.6551628  38.9725248  73.1211525  15.3733241  34.1540800
  72.1962021  15.2409455  34.3618492  73.3695938  16.1527461  34.6510742
  83.0696187  11.4401985  35.8001533  82.1613065  11.3717393  35.5060294
  83.0183783  11.9173930  36.6283358  76.8912931  12.9160123  27.4384932
  76.7712556  13.3617174  28.2770412  76.1965520  13.2645441  26.8798470
  70.4820336  15.0166515  34.9884589  70.6112717  15.2700994  35.9024001
  69.8017787  15.6094223  34.6689244  74.6519823  25.6863765  31.0875063
  74.5743853  26.6371590  31.1663544  74.0481467  25.3409637  31.7449989
  77.1437053  12.8591630  43.7436430  76.3670387  13.4185550  43.7339295
  77.7827616  13.3448413  44.2651300  84.9357834   9.6418423  37.5779407
  84.2932214   9.9350956  36.9319201  84.4312762   9.5271343  38.3832603
  82.5897997  13.3881596  28.2665266  83.5015854  13.6208983  28.0912964
  82.0807644  13.9718640  27.7040345  75.3983425  15.6677084  43.3054397
  76.1398110  16.2062128  43.0289221  74.6920411  16.2943372  43.4625949
  80.8738765  17.8106224  41.9026559  81.2822121  17.3688635  41.1581191
  80.1516027  17.2358852  42.1560751  77.2269835  12.7478831  39.2760115
  78.0731030  13.1718244  39.4194764  77.1668473  12.0912455  39.9698679
  81.1967580  18.3707415  35.6578847  80.5676442  18.5353129  34.9554915
  80.8093242  18.7849024  36.4289811  85.0756812  19.3061853  33.0123211
  84.3907850  19.6860754  32.4620244  85.1600661  19.9157179  33.7455159
  80.3769280  10.4083199  40.9341289  80.1330212  11.1625260  40.3975565
  80.6529211  10.7868547  41.7688536  82.3307743  16.9521812  39.6118555
  82.5424638  17.5953571  38.9352936  82.2837491  16.1184128  39.1440485
  79.9333972   9.5639632  36.5155127  79.0718451   9.8620886  36.8071864
  79.9596407   9.7810031  35.5836159  76.7495542  18.1081823  32.9228933
  77.2133887  18.3869526  32.1333555  76.4852340  17.2065267  32.7402023
  73.6419623  17.6553304  35.8608696  74.2120980  18.0840573  35.2226180
  74.2327734  17.3735889  36.5592881  75.6864428  14.2304975  29.7318498
  76.3888471  14.6826019  30.1992424  75.3545056  13.5888794  30.3598391
  74.1344789  12.8216732  44.1069707  73.5043450  13.5033013  44.3405104
  74.0280877  12.7099813  43.1622845  69.4289762  12.4888528  35.0335631
  68.6388816  12.7446056  34.5575742  69.9201009  13.3036866  35.1387672
  83.4453571  19.8293767  37.7840912  84.2671015  19.4273954  37.5023594
  83.4415974  19.7262001  38.7357028  71.3804507  12.8533107  31.9919108
  70.5835670  12.9651801  32.5102604  71.1530099  13.1919759  31.1259998
  77.2110175  19.3777810  39.9401623  77.2754607  19.8398217  40.7759794
  76.5021098  18.7475175  40.0683932  67.7127465  12.7419018  37.4650622
  67.9635503  13.6266028  37.7308198  68.2487013  12.5623620  36.6925714
  91.5359564  16.1732515  34.1325884  90.7823273  15.6039914  33.9769888
  91.6707105  16.1395180  35.0796518  76.9258192  21.0445918  29.8080603
  76.7903867  21.8897453  30.2365451  77.4668005  21.2465195  29.0446537
  73.4125532   7.1237498  46.4694958  73.0192477   6.5703696  47.1442602
  74.2291672   7.4348076  46.8601476  70.3787590  18.5621356  30.3808528
  70.8912110  19.3564606  30.5314093  71.0310302  17.8647646  30.3142129
  72.1882474  21.6787112  32.4631281  72.3649103  22.6005077  32.2752265
  72.9839308  21.3645531  32.8925661  76.3293493   8.5395377  44.0615215
  77.0703206   9.1402530  43.9819677  76.5611416   7.7973014  43.5033257
  71.4734831  13.7251744  42.3393444  71.3588346  12.8237001  42.6400543
  70.6179349  13.9715441  41.9878261  78.5526669  21.6669484  43.9380945
  78.1090523  20.8805863  43.6201849  79.2143882  21.8548635  43.2724836
  73.3113790  23.1965286  38.4641623  73.8621215  23.0682349  37.6918617
  72.4725266  23.4960175  38.1136516  80.6507907  21.9472284  41.9662346
  80.6326382  22.7681165  41.4742615  81.5727827  21.8226359  42.1912487
  77.1080961  19.4616414  42.8085855  77.6409298  18.7004702  42.5785163
  76.5795042  19.1690065  43.5510009  80.2750656   4.5676480  38.3379496
  79.9314925   5.4578121  38.2618607  80.6429618   4.3778137  37.4749081
  68.3436506  16.8910010  31.1568098  69.1811728  17.3007018  30.9401806
  68.5214774  15.9509452  31.1268292  80.2400939  14.5585091  26.8451931
  79.7247562  15.3289695  27.0840319  79.9678247  13.8850227  27.4684993
  77.8248050   9.4034792  31.9037170  76.9689646   9.0141642  31.7242809
  78.2375001   9.4826752  31.0436955  79.3547196   6.9381135  36.3028730
  78.8511992   6.9011270  35.4896535  79.6477803   7.8473877  36.3625386
  75.5990082   7.0219864  35.3094911  76.4643079   6.8262673  34.9500801
  75.6667591   6.7930216  36.2364268  85.2135213  17.3117445  28.7805105
  84.4364655  16.9728605  28.3360267  85.8926694  17.3170069  28.1060070
  80.0287242  12.4312183  28.6711713  79.7237377  12.7458332  29.5221856
  80.9817684  12.5093603  28.7139046  78.4733674  18.5902406  30.3204667
  77.9455035  17.8555166  30.0077904  77.9721176  19.3677082  30.0744635
  83.4526520  16.7851427  35.4371713  82.7950194  17.4750688  35.5251842
  84.2566919  17.1747859  35.7805699  73.2052401   9.2522072  32.6811278
  73.7796153   9.0297254  31.9484471  73.7923384   9.3210767  33.4339879
  82.2631978  15.1395799  33.4875655  82.7763860  15.7725791  33.9897364
  82.9133202  14.5396995  33.1219015  73.5321988  11.2826533  26.7007163
  72.6959301  11.6201220  27.0216438  73.3926758  11.1475513  25.7634300
  75.5075069   6.1263321  31.4086348  74.8539481   5.8112339  30.7842962
  75.4655543   5.5039062  32.1346170  76.6186274  16.4082616  23.3239640
  75.7113335  16.1771870  23.5230789  77.1157306  15.6120236  23.5113621
  79.5254353  25.1180124  26.2436326  78.8516051  25.4211820  26.8521284
  79.9120175  25.9209204  25.8941783  78.7412809  12.6145255  35.7333995
  77.8235371  12.8360202  35.5755683  79.1572953  12.6891565  34.8745703
  79.5247857  14.0136671  30.8636675  80.2719676  14.5258068  30.5543797
  79.7939447  13.6920723  31.7241069  77.7974507  16.5095211  27.8463630
  76.8885726  16.2254244  27.9436099  77.8269591  16.9294290  26.9866937
  83.0293775  20.1201801  31.6154797  82.5756102  19.2792711  31.6719988
  82.3987741  20.7563199  31.9529577  81.9726694  11.0493787  32.8455465
  81.2349451  10.5371173  33.1765707  82.2253468  10.6094168  32.0338742
  81.4726714  21.9578297  32.5504615  81.7649688  22.5183355  31.8316981
  81.9825334  22.2506858  33.3057775  68.3662678  14.2300725  31.8278832
  68.1687077  13.6370086  31.1029899  67.8109342  13.9252936  32.5454771
  76.3459401  14.1223832  33.9473425  76.4008011  13.1697668  33.8715902
  75.5350603  14.2783271  34.4314724  77.4950595  18.0503955  25.1851708
  77.0570025  17.3339814  24.7257346  78.2361036  18.2780070  24.6236800
  74.2851761  12.7400892  31.7063804  73.4719627  13.0395062  32.1128996
  74.7810755  12.3456580  32.4238286  76.4360339  22.7358649  33.6398069
  76.3936518  22.9619495  32.7106601  77.3523038  22.5022023  33.7883870
  79.8825973  13.2042716  40.5378698  80.2375361  13.4314189  41.3973164
  80.5298104  13.5361093  39.9155953  85.6123710  16.3261152  31.2428027
  85.4741608  16.5162748  30.3149216  85.2559929  17.0880535  31.6996078
  73.7765836  10.3119247  37.3225039  74.4165215  10.1708006  36.6248002
  72.9443366  10.0253761  36.9463641  85.6393089  18.3937679  36.2539298
  86.0729596  18.3012968  37.1022352  86.3524670  18.3695179  35.6159314
  74.5526140  19.6121678  33.4360031  75.3466738  19.1171998  33.2342606
  73.8417832  19.0839541  33.0727737  79.3720984  21.9939773  37.7872399
  79.4258007  22.5630709  38.5550115  78.5035766  22.1641658  37.4226436
  70.8608903  13.7564759  29.5119784  69.9306491  13.6949215  29.7289746
  70.9566375  13.2340712  28.7156425  70.7794452  10.2819572  32.0998026
  71.0401270  11.1964905  31.9907186  71.6011625   9.8144015  32.2494639
  72.2519378  11.6957329  39.2696850  72.9242431  11.4874691  38.6209499
  71.4249164  11.4979415  38.8302083  86.5008639  18.4361380  38.7872184
  86.6944529  19.3407190  39.0331459  86.4009257  17.9768799  39.6210769
  78.1544950   8.3219270  41.2862511  77.5072865   9.0209220  41.1926988
  78.9245965   8.7555414  41.6538759  81.5623748  18.5868122  44.3613064
  81.4109254  18.3578674  43.4443148  81.5528427  19.5438724  44.3744409
  78.3309084  16.1600035  39.3459331  79.2601144  16.3111195  39.1728298
  77.9100114  16.2484056  38.4907977  77.1297416  20.1850700  37.1157868
  76.9908501  19.8169484  37.9883807  76.3412012  20.6998339  36.9441826
  77.7245568  25.2859796  28.4583405  77.8997323  24.8147839  29.2729028
  77.0378356  25.9125562  28.6864666  78.6802631  19.5632302  34.5046706
  78.3452464  19.5233072  35.4004356  78.1806577  18.8977018  34.0317116
  72.6546875  14.9699932  40.0299287  72.5166673  14.2380171  40.6310826
  73.5651798  14.8808832  39.7483475  81.6161823  16.9088337  24.7783766
  80.9990993  16.1835165  24.6816819  81.1478311  17.6697697  24.4350840
  75.2829176  14.6819892  39.5182967  75.9928794  14.0413084  39.4769585
  75.2398484  14.9332786  40.4409148  83.2715954  21.6187245  42.4389546
  83.2128500  20.9346465  41.7720129  83.6735473  22.3606235  41.9870172
  73.9958110  11.6685109  41.3378607  73.4595467  11.2175848  41.9900203
  73.4074818  11.8031018  40.5949071  73.4060369  11.1273761  23.9005070
  72.5289835  11.0062562  23.5367317  73.8818122  10.3359839  23.6483959
  83.2733362  19.5826829  40.6703526  82.3860140  19.2452751  40.7929925
  83.8431913  18.8509860  40.9072291  64.9262509  15.9150921  33.9946577
  65.6133548  15.6012651  33.4067593  64.7710637  16.8192285  33.7213829
  69.7297231  10.8041117  38.4231601  69.6455420  10.1966787  37.6882011
  68.9079937  11.2950135  38.4241097  76.8034515  24.2428281  37.6364769
  76.7304686  25.0483253  38.1484074  76.3611908  24.4420247  36.8112791
  76.5924295  23.4800051  31.1467591  75.8091816  24.0221731  31.2405815
  77.2917040  23.9974031  31.5461832  79.9020945   9.2894681  33.7901796
  80.3989644   8.5364643  33.4702866  79.1307926   9.3258997  33.2245005
  87.7550702  14.9935046  35.4320088  87.7440578  15.8759762  35.0614021
  86.8868081  14.6406597  35.2374625  80.9850725  18.0466368  31.3640219
  80.0507004  18.1667830  31.1944924  81.1627394  17.1438835  31.1000229
  76.4855913  11.4312064  33.5173481  76.1153701  10.8783104  34.2054386
  76.9815006  10.8270197  32.9648481  84.3723277  13.8883687  31.8990254
  84.8383729  14.7211679  31.8250556  84.8230777  13.4228669  32.6035512
  74.3145112  21.8909559  40.6128499  75.0154571  22.5246042  40.7657893
  73.8440227  22.2324290  39.8524138  82.4399508  20.2327509  28.8976406
  82.7159352  20.1184103  29.8070280  81.5704007  19.8344993  28.8588579
  82.3439939   6.2564274  35.9381155  81.4303019   6.4868501  36.1063362
  82.7733041   6.3402718  36.7895187  82.1146398  14.4454166  38.4381049
  81.4617848  14.6930074  37.7833502  82.4926778  13.6318304  38.1043526
  79.0753572  24.4813859  32.5409219  79.2575966  23.6635515  33.0036972
  79.8986558  24.6981552  32.1034109  79.4095737  23.4082044  29.8024268
  79.9383504  22.8974499  29.1894430  79.6723957  23.0924575  30.6669801
  78.1633971  15.1873977  44.9247086  77.4874608  15.0868107  45.5949461
  78.9861605  15.0313191  45.3883083  69.9112830  21.4245914  37.5459601
  70.4966267  20.6789602  37.6787506  69.7137668  21.7349870  38.4296265
  72.7651485  24.4597161  32.5622044  72.0961861  24.9443289  32.0786084
  72.6264355  24.7066382  33.4765422  64.5030485  13.9951514  36.2664044
  64.5414584  13.4615105  37.0601163  63.9970778  13.4686719  35.6475022
  76.9056754  26.4940905  39.1604702  77.4575062  26.6572526  39.9253787
  77.2462947  27.0845343  38.4884727  71.8821247   8.8416054  39.7626587
  71.9462574   9.7030885  39.3503984  71.8188367   8.2290056  39.0298945
  71.3573520  10.9139187  43.4099621  71.9845558  10.5316264  44.0237145
  70.5001438  10.6953389  43.7755314  81.7567628  21.3202162  45.0153356
  82.3007532  21.9332120  44.5208311  81.1754473  21.8781741  45.5320369
  68.1339062  12.7215616  29.3417976  68.4292503  11.8126295  29.2885030
  67.2327098  12.7003356  29.0198978  80.0425141  24.4422880  36.1468384
  79.9176281  23.6412620  35.6379330  80.7004232  24.9369074  35.6582354
  71.6633309  10.7971613  35.3245524  70.9419895  11.4107580  35.1852998
  72.4526565  11.3329378  35.2462170  82.1060050  22.2431900  37.7747934
  81.1590385  22.1237251  37.7026261  82.4542823  21.3554398  37.8574196
  74.4659623   8.1326039  41.5986176  74.9894025   8.3788336  42.3612486
  74.2471956   8.9646074  41.1789314  69.8626904  10.4029714  29.4657301
  69.5339610   9.5227093  29.2832407  70.2166275  10.3477382  30.3533690
  79.1106483  22.0384617  33.9752287  78.9631445  21.1101324  34.1559857
  79.9359976  22.0604707  33.4909362  72.9768727  10.6902684  29.8332779
  73.3164800  11.2188605  29.1111387  73.4240848  11.0283090  30.6091345
  82.7140605  22.8613175  35.0617159  83.6387152  22.6556037  34.9241610
  82.5455908  22.6129576  35.9706501  75.6712168   9.0739734  39.2835847
  75.3308988   8.2747547  39.6856527  74.9651174   9.3741445  38.7112680
  76.3228640   6.1589047  37.7363170  77.1454709   5.6849525  37.6142060
  76.5666703   6.9379530  38.2361856  74.9636874   9.1877305  28.0326071
  75.6845237   9.5658558  27.5289788  74.3402178   9.9066182  28.1361049
  79.1067997   9.8922454  28.9684404  79.3231612  10.7747092  28.6673232
  78.6262064   9.5008668  28.2390046  73.8467218  12.8508167  35.5455148
  73.7011799  13.1648470  36.4379430  73.3692422  13.4693068  34.9926047
  75.7063601   9.8410715  35.5936038  75.6925170   8.9451809  35.2568336
  76.4236029   9.8481379  36.2274324  77.5589732  10.2748056  37.6389165
  77.3007510  11.1965126  37.6373496  77.0274772   9.8778490  38.3289629
  82.5035921  23.3798843  30.4179251  82.6772798  22.8145265  29.6653103
  82.9964812  24.1799738  30.2358741  68.3212881  15.3913512  38.4842810
  67.7766349  16.1673320  38.6163084  69.1992231  15.7384316  38.3261931
  75.1100497   8.7225096  30.8623608  75.2316409   7.7941742  31.0614496
  74.8202540   8.7363782  29.9501923  77.9791688   6.4080006  33.9990328
  78.0013385   6.4719339  33.0442307  78.3959747   5.5684515  34.1930834
  88.3575312  16.1435266  32.0369550  88.8006458  15.3942591  31.6388674
  87.4801822  16.1345402  31.6543282  83.4911093  22.6965607  27.5176149
  84.1861998  23.3172300  27.7363464  83.8334243  21.8460958  27.7928527
  69.1078903  14.5183408  41.3772966  68.3660639  14.6666043  41.9637597
  68.7871647  14.7791674  40.5139716  85.3902516  20.1465313  29.0463480
  85.9153841  20.4852585  28.3212800  85.3024869  19.2112328  28.8626614
  77.0522565  24.0599386  41.1753356  77.3609692  23.8148533  42.0476056
  77.8498047  24.2646025  40.6872227  77.0743177  26.2137296  33.4058733
  76.6348168  25.7213675  34.0991590  77.8251294  25.6710264  33.1650808
  69.5535516  22.4048837  33.4083361  70.3793536  22.1052609  33.0282005
  69.2029568  21.6356459  33.8573150  74.5217049  21.7575305  35.4781035
  73.8997059  21.0946010  35.1783262  75.1921916  21.7836437  34.7954682
  67.7544121  20.3235163  34.3672295  66.9176030  19.8957338  34.1856296
  67.7267767  20.5167607  35.3043086  74.5941577  10.2357093  45.0713541
  74.6429732  11.1119216  44.6891310  75.1364091   9.6934486  44.4985184
  85.0796423  20.7798216  44.3514678  84.2891966  20.7622355  43.8119177
  84.8429777  21.3186510  45.1063714  85.1994298  17.6290683  41.6647406
  85.2492303  17.4640690  42.6062929  85.0908221  16.7617942  41.2745287
  74.0830556  20.3079228  28.9539495  74.2318677  20.9914693  28.3006168
  74.8897000  20.2884318  29.4688951  82.4898060  13.6121611  42.9806713
  83.3907923  13.4728076  42.6890711  82.5646034  13.7776065  43.9204890
  76.8240865  10.9888465  41.8259899  75.9544175  11.2822031  41.5542488
  77.0600346  11.5728910  42.5467163  86.7012494  20.0487624  41.9089428
  86.4097303  20.4117605  42.7452889  86.0884626  19.3354632  41.7302760
  87.9008177  17.6140504  34.4291998  88.7355068  18.0530308  34.5929558
  88.0367306  17.1379157  33.6100244  84.9499683  15.1720239  40.3769486
  85.4253804  15.3647885  39.5688337  84.0265248  15.2279425  40.1312869
  71.8383189  16.3344406  29.9600564  71.5929231  15.4306736  30.1580774
  72.0079104  16.3361556  29.0180042  79.5279899   7.2068082  39.3425320
  80.0461843   7.9429109  39.0171808  79.1735032   7.5132076  40.1772079
  71.1078837  12.0672764  27.4586726  70.4148082  12.1417119  26.8026762
  70.8630589  11.3033107  27.9808242  77.5825962  22.8027359  26.4251243
  77.0099929  23.4217546  25.9721714  78.1558755  23.3526720  26.9591165
  83.6501352  12.0485999  38.6097791  84.6018775  12.1484097  38.6310015
  83.4804802  11.2564267  39.1195876  81.6715731   9.1341582  38.7957192
  81.0765663   9.4146595  38.1003681  81.3865428   9.6235483  39.5673933
  80.8023222  23.0864509  27.5559825  81.7353895  23.0210071  27.7592700
  80.7146434  23.9220776  27.0974358  83.4311238  22.4030379  24.5163772
  83.3524870  22.0690243  25.4099530  84.2520905  22.8952147  24.5155245
  86.1289429  15.2692119  37.7240091  86.0965750  14.3308119  37.9099775
  86.7390053  15.3476155  36.9905916  77.9672760  14.1388172  23.7667295
  78.9131865  14.0094380  23.8355713  77.5887005  13.4002833  24.2436723
  86.2783918  12.0603162  37.7698374  85.7622967  11.2761619  37.5828303
  87.1623866  11.7321879  37.9344894  83.9394645   5.8044178  33.7294187
  83.7419466   5.4959266  34.6137519  84.5494350   6.5305816  33.8592117
  91.9465979  16.3308125  36.8646128  92.6769368  16.0693414  37.4253831
  91.3372925  15.5936847  36.9048196  90.0281276  14.4715988  37.4620579
  89.3014440  14.3371953  36.8537071  89.6128563  14.7792817  38.2677297
  77.8511453  18.1905918  45.2267952  78.7714462  18.3684517  45.4207999
  77.8161036  17.2461963  45.0747651  76.1515677  12.0638148  23.7022180
  75.2447133  11.7671261  23.7784894  76.4291658  11.7667966  22.8356467
  67.0693618  13.3844511  34.1521227  66.7496402  12.5309820  33.8595601
  66.5227046  13.5993089  34.9079194  70.8473525  16.1006952  37.8690733
  71.0659535  17.0324060  37.8878767  71.2599299  15.7414927  38.6545537
  77.7677743   6.6075038  29.8566422  76.9578471   6.2622123  30.2321668
  78.4562160   6.2982581  30.4454033  79.6968291   5.6853084  31.4790718
  80.2499330   6.1048538  32.1380741  79.9338378   4.7588833  31.5213674
  75.7201391  11.6740158  47.2593482  75.6198118  12.6234515  47.1905573
  75.5022933  11.3458397  46.3869552  74.9214462   8.9225083  23.8434160
  75.7833626   9.2479981  24.1029977  75.1064806   8.1356579  23.3307225
  66.9381878  17.0047423  36.1214348  66.2445349  16.5901376  35.6084303
  67.6854869  17.0467959  35.5247767  83.0747099   7.7953610  30.9869383
  82.4945768   8.4538414  30.6047435  82.8083031   6.9730954  30.5756800
  81.5250665   7.1958667  33.1890703  82.0250443   7.3075202  32.3805022
  82.1686273   6.8919720  33.8291511  75.5832661  15.1037297  46.0758544
  75.0999742  15.9037657  46.2822433  75.6693600  15.1145242  45.1225988
  68.8518620  16.9365677  33.9980363  68.8289308  17.0353364  33.0462246
  69.1619257  17.7830827  34.3197529  71.5105998  18.9941832  38.1126978
  72.4649252  18.9625774  38.0456909  71.3118522  18.5332455  38.9277204
  72.1005380  17.5642948  40.6797775  72.9198269  18.0587026  40.7032613
  72.3742188  16.6474916  40.6515343  81.8571977   9.9553700  30.0425731
  80.9697832  10.2403351  29.8245926  82.2725966   9.7947463  29.1953008
  85.2086513   9.9800221  33.7580070  85.9846903  10.4696673  34.0304687
  84.4834647  10.4058275  34.2151940  87.6459071  10.6927840  34.8154011
  88.2403562  10.4523576  34.1047319  87.7185655   9.9734971  35.4427547
  69.8656227  24.5361451  35.1297175  69.7310695  23.7761852  34.5635174
  69.4488289  25.2602351  34.6625964  81.0015190  19.7198375  24.1373751
  81.7051040  19.9248377  24.7531406  80.2777839  20.2875137  24.4022834
  81.8313000  15.4708236  30.2576021  81.7748202  15.9276787  29.4183653
  82.3841343  14.7098921  30.0798864  85.6417806  11.2597968  31.0826140
  85.3854740  10.8594603  31.9134348  85.0170674  11.9741762  30.9576280
  89.9530144  13.9994041  33.5897432  89.3929702  14.0687230  34.3628994
  89.3473647  13.8235026  32.8696928  73.0225353  25.4330768  35.3415618
  72.9057737  26.3776201  35.2394308  72.2017799  25.1304330  35.7301417
  82.9101887  20.1580904  26.1872211  83.7447491  19.7262102  26.0049686
  82.7486230  19.9862918  27.1149105  82.5647780  16.6613017  27.5528550
  82.5096583  16.4957289  26.6116994  81.9393835  17.3689050  27.7090740
  67.3540295  11.8981082  41.3789972  67.9999158  11.3880036  41.8677198
  67.1457446  12.6349763  41.9533398  79.8793687  18.9661929  46.8782113
  80.7484846  19.1402581  46.5168748  79.4000438  19.7856346  46.7557842
  75.8743905   6.1621126  27.1313869  75.8622575   7.1062966  27.2882139
  76.7667327   5.9791272  26.8373330  74.0479867  26.0859030  38.5571547
  74.9507114  26.1182640  38.8738042  73.8217237  25.1559481  38.5717882
  75.8033469  24.8390017  35.2181625  74.8529100  24.8391878  35.1045997
  76.1065955  24.0922751  34.7017660  71.6937786   9.0448699  45.4764987
  72.5569247   8.6885503  45.6868311  71.1203196   8.7062593  46.1640391
  91.5386163  30.6750555  36.2827388  92.1764572  30.5557302  35.5790728
  91.4207005  31.6231399  36.3415340  88.3475869  30.6277983  36.2188912
  88.0094380  30.5119048  35.3309447  89.2165637  30.2269148  36.1989918
  86.0484148  29.3966230  25.5505852  86.3009669  28.8747752  24.7889315
  85.1108707  29.2332376  25.6532536  91.0927431  28.4002009  33.3580596
  91.8790520  27.9821432  33.0071013  91.3566135  29.3048101  33.5262244
  96.4935858  28.3377242  34.2613574  97.2261030  27.7676459  34.4951404
  95.7375214  27.9498842  34.7020080  85.7680437  31.2994336  27.7530227
  85.6516695  30.6239240  28.4211312  85.8782697  30.8126710  26.9362380
  88.1111978  30.7604484  31.4576917  87.7470185  30.2335104  32.1689838
  88.9679094  30.3702953  31.2843402  94.0161278  22.0498816  38.7208183
  93.6844603  22.9194227  38.4969398  93.4206892  21.7335100  39.4002213
  87.7517465  25.7894383  26.4538265  87.9191867  26.6574620  26.8208736
  87.5614634  25.9521665  25.5299554  93.9089942  26.7693902  35.8001533
  93.0006819  26.7009311  35.5060294  93.8577538  27.2465847  36.6283358
  87.7306686  28.2452041  27.4384932  87.6106311  28.6909091  28.2770412
  87.0359274  28.5937358  26.8798470  87.9830808  28.1883548  43.7436430
  87.2064142  28.7477468  43.7339295  88.6221371  28.6740331  44.2651300
  95.7751588  24.9710341  37.5779407  95.1325968  25.2642874  36.9319201
  95.2706517  24.8563261  38.3832603  93.4291752  28.7173514  28.2665266
  94.3409608  28.9500901  28.0912964  92.9201399  29.3010558  27.7040345
  88.0663590  28.0770748  39.2760115  88.9124785  28.5010162  39.4194764
  88.0062227  27.4204373  39.9698679  92.0361334  33.6999332  35.6578847
  91.4070197  33.8645046  34.9554915  91.6486996  34.1140942  36.4289811
  95.9150566  34.6353770  33.0123211  95.2301604  35.0152672  32.4620244
  95.9994415  35.2449097  33.7455159  91.2163035  25.7375117  40.9341289
  90.9723967  26.4917177  40.3975565  91.4922965  26.1160464  41.7688536
  90.7727727  24.8931550  36.5155127  89.9112206  25.1912803  36.8071864
  90.7990161  25.1101949  35.5836159  86.5258182  29.5596893  29.7318498
  87.2282225  30.0117936  30.1992424  86.1938811  28.9180712  30.3598391
  80.2683516  27.8180445  35.0335631  79.4782570  28.0737974  34.5575742
  80.7594763  28.6328783  35.1387672  82.2198261  28.1825025  31.9919108
  81.4229425  28.2943719  32.5102604  81.9923854  28.5211677  31.1259998
  78.5521219  28.0710936  37.4650622  78.8029257  28.9557946  37.7308198
  79.0880767  27.8915537  36.6925714 102.3753319  31.5024433  34.1325884
 101.6217027  30.9331831  33.9769888 102.5100860  31.4687098  35.0796518
  84.2519286  22.4529415  46.4694958  83.8586232  21.8995614  47.1442602
  85.0685427  22.7639994  46.8601476  87.1687247  23.8687294  44.0615215
  87.9096961  24.4694447  43.9819677  87.4005170  23.1264932  43.5033257
  91.1144410  19.8968397  38.3379496  90.7708680  20.7870039  38.2618607
  91.4823373  19.7070055  37.4749081  91.0794693  29.8877008  26.8451931
  90.5641316  30.6581613  27.0840319  90.8072001  29.2142145  27.4684993
  88.6641804  24.7326709  31.9037170  87.8083400  24.3433560  31.7242809
  89.0768756  24.8118670  31.0436955  90.1940951  22.2673052  36.3028730
  89.6905746  22.2303188  35.4896535  90.4871558  23.1765795  36.3625386
  86.4383837  22.3511782  35.3094911  87.3036833  22.1554591  34.9500801
  86.5061345  22.1222134  36.2364268  96.0528967  32.6409363  28.7805105
  95.2758410  32.3020523  28.3360267  96.7320448  32.6461986  28.1060070
  90.8680996  27.7604101  28.6711713  90.5631132  28.0750250  29.5221856
  91.8211438  27.8385520  28.7139046  94.2920274  32.1143344  35.4371713
  93.6343949  32.8042606  35.5251842  95.0960673  32.5039776  35.7805699
  84.0446156  24.5813990  32.6811278  84.6189908  24.3589172  31.9484471
  84.6317138  24.6502685  33.4339879  93.1025733  30.4687717  33.4875655
  93.6157615  31.1017709  33.9897364  93.7526957  29.8688913  33.1219015
  84.3715743  26.6118451  26.7007163  83.5353055  26.9493138  27.0216438
  84.2320512  26.4767431  25.7634300  86.3468823  21.4555239  31.4086348
  85.6933236  21.1404256  30.7842962  86.3049298  20.8330979  32.1346170
  87.4580028  31.7374534  23.3239640  86.5507090  31.5063788  23.5230789
  87.9551060  30.9412153  23.5113621  89.5806564  27.9437173  35.7333995
  88.6629125  28.1652120  35.5755683  89.9966707  28.0183483  34.8745703
  90.3641611  29.3428588  30.8636675  91.1113430  29.8549985  30.5543797
  90.6333201  29.0212641  31.7241069  93.8687529  35.4493718  31.6154797
  93.4149856  34.6084628  31.6719988  93.2381496  36.0855117  31.9529577
  92.8120449  26.3785704  32.8455465  92.0743205  25.8663091  33.1765707
  93.0647222  25.9386086  32.0338742  92.3120468  37.2870215  32.5504615
  92.6043443  37.8475272  31.8316981  92.8219089  37.5798776  33.3057775
  92.9132076  19.1561956  33.4397234  93.2190953  18.2959320  33.1523149
  93.6384681  19.7479577  33.2396228  87.1853156  29.4515750  33.9473425
  87.2401765  28.4989586  33.8715902  86.3744358  29.6075189  34.4314724
  85.1245516  28.0692809  31.7063804  84.3113381  28.3686980  32.1128996
  85.6204510  27.6748498  32.4238286  90.7219727  28.5334634  40.5378698
  91.0769115  28.7606107  41.3973164  91.3691859  28.8653011  39.9155953
  96.4517464  31.6553070  31.2428027  96.3135363  31.8454666  30.3149216
  96.0953683  32.4172452  31.6996078  84.6159590  25.6411165  37.3225039
  85.2558970  25.4999924  36.6248002  83.7837121  25.3545678  36.9463641
  96.4786844  33.7229597  36.2539298  96.9123351  33.6304886  37.1022352
  97.1918425  33.6987097  35.6159314  81.7002658  29.0856677  29.5119784
  80.7700246  29.0241132  29.7289746  81.7960130  28.5632630  28.7156425
  81.6188207  25.6111490  32.0998026  81.8795024  26.5256823  31.9907186
  82.4405379  25.1435932  32.2494639  83.0913132  27.0249247  39.2696850
  83.7636186  26.8166609  38.6209499  82.2642919  26.8271333  38.8302083
  97.3402393  33.7653297  38.7872184  97.5338284  34.6699108  39.0331459
  97.2403012  33.3060716  39.6210769  88.9938704  23.6511188  41.2862511
  88.3466619  24.3501138  41.1926988  89.7639720  24.0847332  41.6538759
  92.4555577  32.2380254  24.7783766  91.8384748  31.5127082  24.6816819
  91.9872066  32.9989615  24.4350840  84.8351864  26.9977027  41.3378607
  84.2989221  26.5467766  41.9900203  84.2468572  27.1322936  40.5949071
  84.2454123  26.4565679  23.9005070  83.3683589  26.3354479  23.5367317
  84.7211876  25.6651757  23.6483959  80.5690985  26.1333035  38.4231601
  80.4849174  25.5258704  37.6882011  79.7473692  26.6242053  38.4241097
  90.7414699  24.6186598  33.7901796  91.2383399  23.8656561  33.4702866
  89.9701681  24.6550915  33.2245005  98.5944457  30.3226964  35.4320088
  98.5834333  31.2051679  35.0614021  97.7261836  29.9698515  35.2374625
  91.8244480  33.3758286  31.3640219  90.8900759  33.4959748  31.1944924
  92.0021148  32.4730752  31.1000229  87.3249668  26.7603981  33.5173481
  86.9547455  26.2075022  34.2054386  87.8208760  26.1562115  32.9648481
  95.2117031  29.2175605  31.8990254  95.6777483  30.0503596  31.8250556
  95.6624532  28.7520586  32.6035512  93.2793262  35.5619426  28.8976406
  93.5553106  35.4476021  29.8070280  92.4097761  35.1636911  28.8588579
  93.1833694  21.5856192  35.9381155  92.2696774  21.8160419  36.1063362
  93.6126795  21.6694636  36.7895187  92.9540152  29.7746084  38.4381049
  92.3011603  30.0221991  37.7833502  93.3320532  28.9610222  38.1043526
  89.9147326  39.8105777  32.5409219  90.0969721  38.9927433  33.0036972
  90.7380312  40.0273469  32.1034109  90.2489492  38.7373962  29.8024268
  90.7777258  38.2266417  29.1894430  90.5117711  38.4216492  30.6669801
  82.7215002  24.1707972  39.7626587  82.7856328  25.0322803  39.3503984
  82.6582122  23.5581974  39.0298945  78.9732817  28.0507534  29.3417976
  79.2686258  27.1418212  29.2885030  78.0720853  28.0295273  29.0198978
  82.5027064  26.1263530  35.3245524  81.7813650  26.7399498  35.1852998
  83.2920320  26.6621295  35.2462170  85.3053377  23.4617957  41.5986176
  85.8287779  23.7080253  42.3612486  85.0865711  24.2937992  41.1789314
  80.7020658  25.7321631  29.4657301  80.3733365  24.8519010  29.2832407
  81.0560029  25.6769300  30.3533690  83.8162482  26.0194601  29.8332779
  84.1558554  26.5480523  29.1111387  84.2634602  26.3575007  30.6091345
  86.5105922  24.4031652  39.2835847  86.1702743  23.6039465  39.6856527
  85.8044929  24.7033363  38.7112680  87.1622394  21.4880964  37.7363170
  87.9848464  21.0141443  37.6142060  87.4060458  22.2671448  38.2361856
  85.8030629  24.5169223  28.0326071  86.5238991  24.8950476  27.5289788
  85.1795933  25.2358100  28.1361049  89.9461752  25.2214372  28.9684404
  90.1625366  26.1039010  28.6673232  89.4655819  24.8300585  28.2390046
  84.6860973  28.1800085  35.5455148  84.5405554  28.4940388  36.4379430
  84.2086177  28.7984985  34.9926047  86.5457356  25.1702633  35.5936038
  86.5318925  24.2743726  35.2568336  87.2629784  25.1773297  36.2274324
  88.3983487  25.6039973  37.6389165  88.1401264  26.5257044  37.6373496
  87.8668527  25.2070408  38.3289629  93.3429675  38.7090760  30.4179251
  93.5166553  38.1437183  29.6653103  93.8358567  39.5091655  30.2358741
  85.9494252  24.0517013  30.8623608  86.0710163  23.1233659  31.0614496
  85.6596294  24.0655699  29.9501923  88.8185442  21.7371924  33.9990328
  88.8407139  21.8011257  33.0442307  89.2353501  20.8976432  34.1930834
  99.1969067  31.4727183  32.0369550  99.6400213  30.7234509  31.6388674
  98.3195577  31.4637320  31.6543282  94.3304848  38.0257525  27.5176149
  95.0255752  38.6464217  27.7363464  94.6727998  37.1752876  27.7928527
  96.2296271  35.4757230  29.0463480  96.7547595  35.8144503  28.3212800
  96.1418624  34.5404246  28.8626614  95.9190177  36.1090134  44.3514678
  95.1285721  36.0914273  43.8119177  95.6823532  36.6478428  45.1063714
  96.0388052  32.9582600  41.6647406  96.0886057  32.7932608  42.6062929
  95.9301975  32.0909859  41.2745287  93.3291814  28.9413528  42.9806713
  94.2301677  28.8019993  42.6890711  93.4039789  29.1067983  43.9204890
  87.6634620  26.3180383  41.8259899  86.7937929  26.6113949  41.5542488
  87.8994100  26.9020828  42.5467163  97.5406249  35.3779542  41.9089428
  97.2491057  35.7409522  42.7452889  96.9278380  34.6646550  41.7302760
  98.7401931  32.9432422  34.4291998  99.5748823  33.3822226  34.5929558
  98.8761060  32.4671075  33.6100244  95.7893437  30.5012156  40.3769486
  96.2647559  30.6939803  39.5688337  94.8659003  30.5571342  40.1312869
  90.3673654  22.5360000  39.3425320  90.8855597  23.2721027  39.0171808
  90.0128786  22.8423993  40.1772079  81.9472591  27.3964681  27.4586726
  81.2541836  27.4709036  26.8026762  81.7024343  26.6325025  27.9808242
  90.6186248  18.9560283  34.8626216  90.8988002  18.2883472  35.4886643
  91.4036855  19.1489378  34.3500880  94.4895106  27.3777917  38.6097791
  95.4412529  27.4776014  38.6310015  94.3198557  26.5856185  39.1195876
  92.5109486  24.4633500  38.7957192  91.9159418  24.7438512  38.1003681
  92.2259182  24.9527401  39.5673933  91.6416976  38.4156427  27.5559825
  92.5747649  38.3501988  27.7592700  91.5540189  39.2512693  27.0974358
  94.2704993  37.7322297  24.5163772  94.1918624  37.3982161  25.4099530
  95.0914660  38.2244065  24.5155245  96.9683184  30.5984036  37.7240091
  96.9359504  29.6600037  37.9099775  97.5783808  30.6768073  36.9905916
  88.8066515  29.4680089  23.7667295  89.7525620  29.3386297  23.8355713
  88.4280760  28.7294751  24.2436723  97.1177672  27.3895080  37.7698374
  96.6016721  26.6053536  37.5828303  98.0017621  27.0613796  37.9344894
  94.7788399  21.1336095  33.7294187  94.5813220  20.8251183  34.6137519
  95.3888105  21.8597734  33.8592117 102.7859734  31.6600043  36.8646128
 103.5163122  31.3985331  37.4253831 102.1766679  30.9228765  36.9048196
 100.8675031  29.8007906  37.4620579 100.1408194  29.6663871  36.8537071
 100.4522318  30.1084734  38.2677297  86.9909432  27.3930066  23.7022180
  86.0840887  27.0963178  23.7784894  87.2685413  27.0959884  22.8356467
  88.6071498  21.9366955  29.8566422  87.7972226  21.5914040  30.2321668
  89.2955915  21.6274499  30.4454033  90.5362046  21.0145002  31.4790718
  91.0893085  21.4340456  32.1380741  90.7732132  20.0880750  31.5213674
  86.5595145  27.0032076  47.2593482  86.4591872  27.9526433  47.1905573
  86.3416687  26.6750315  46.3869552  85.7608217  24.2517001  23.8434160
  86.6227381  24.5771899  24.1029977  85.9458561  23.4648497  23.3307225
  93.9140853  23.1245527  30.9869383  93.3339522  23.7830331  30.6047435
  93.6476786  22.3022872  30.5756800  92.3644419  22.5250585  33.1890703
  92.8644198  22.6367120  32.3805022  93.0080027  22.2211638  33.8291511
  92.6965731  25.2845618  30.0425731  91.8091586  25.5695268  29.8245926
  93.1119720  25.1239381  29.1953008  96.0480267  25.3092139  33.7580070
  96.8240657  25.7988591  34.0304687  95.3228401  25.7350193  34.2151940
  98.4852826  26.0219758  34.8154011  99.0797317  25.7815494  34.1047319
  98.5579410  25.3026888  35.4427547  91.8408945  35.0490292  24.1373751
  92.5444795  35.2540295  24.7531406  91.1171593  35.6167054  24.4022834
  92.6706755  30.8000154  30.2576021  92.6141956  31.2568705  29.4183653
  93.2235097  30.0390838  30.0798864  96.4811561  26.5889885  31.0826140
  96.2248495  26.1886521  31.9134348  95.8564429  27.3033679  30.9576280
 100.7923899  29.3285959  33.5897432 100.2323457  29.3979148  34.3628994
 100.1867402  29.1526943  32.8696928  93.7495642  35.4872822  26.1872211
  94.5841246  35.0554020  26.0049686  93.5879985  35.3154835  27.1149105
  93.4041534  31.9904935  27.5528550  93.3490338  31.8249206  26.6116994
  92.7787589  32.6980968  27.7090740  86.7137660  21.4913044  27.1313869
  86.7016329  22.4354884  27.2882139  87.6061081  21.3083189  26.8373330
  90.5289779  18.0855820  31.3859805  89.7622175  17.5314307  31.5316488
  90.9400484  18.1577689  32.2473957 102.3779917  46.0042473  36.2827388
 103.0158327  45.8849220  35.5790728 102.2600760  46.9523317  36.3415340
  99.1869623  45.9569901  36.2188912  98.8488135  45.8410965  35.3309447
 100.0559391  45.5561066  36.1989918  99.6689406  47.1104752  42.1775118
  99.6578047  46.7157551  41.3055621  99.8310046  46.3770825  42.7708889
 100.6255998  51.4776345  27.5200268  99.9743977  52.0630425  27.1334282
 101.4200361  52.0082540  27.5795306  94.5511625  48.5665482  27.9187402
  95.3242501  48.0194469  27.7800278  94.9037024  49.4309731  28.1301864
  96.3896667  49.8941864  41.1254302  96.0986533  50.7987495  41.0100968
  97.0253652  49.9358392  41.8398371  96.8877903  44.7258148  25.5505852
  97.1403423  44.2039669  24.7889315  95.9502462  44.5624294  25.6532536
 101.9321186  43.7293926  33.3580596 102.7184275  43.3113350  33.0071013
 102.1959890  44.6340019  33.5262244 102.1031263  49.1666777  28.0569252
 101.4677096  49.2401403  28.7690157 101.7728669  49.7560376  27.3788332
 107.3329613  43.6669160  34.2613574 108.0654785  43.0968376  34.4951404
 106.5768968  43.2790760  34.7020080  96.6074191  46.6286254  27.7530227
  96.4910450  45.9531157  28.4211312  96.7176451  46.1418628  26.9362380
  98.9505732  46.0896401  31.4576917  98.5863940  45.5627022  32.1689838
  99.8072848  45.6994870  31.2843402 104.8555033  37.3790734  38.7208183
 104.5238358  38.2486145  38.4969398 104.2600646  37.0627018  39.4002213
  98.5911219  41.1186301  26.4538265  98.7585622  41.9866537  26.8208736
  98.4008388  41.2813583  25.5299554 101.3486553  49.5803280  38.1204095
 101.0487276  50.4828319  38.0119903 101.0037612  49.3135463  38.9725248
 104.7483696  42.0985820  35.8001533 103.8400574  42.0301228  35.5060294
 104.6971292  42.5757765  36.6283358  98.5700440  43.5743958  27.4384932
  98.4500065  44.0201009  28.2770412  97.8753029  43.9229276  26.8798470
  98.8224562  43.5175466  43.7436430  98.0457896  44.0769386  43.7339295
  99.4615125  44.0032249  44.2651300 106.6145343  40.3002258  37.5779407
 105.9719723  40.5934792  36.9319201 106.1100271  40.1855179  38.3832603
 104.2685506  44.0465432  28.2665266 105.1803362  44.2792818  28.0912964
 103.7595153  44.6302476  27.7040345  97.0770934  46.3260919  43.3054397
  97.8185619  46.8645963  43.0289221  96.3707920  46.9527208  43.4625949
 102.5526274  48.4690059  41.9026559 102.9609630  48.0272470  41.1581191
 101.8303536  47.8942687  42.1560751  98.9057344  43.4062666  39.2760115
  99.7518539  43.8302080  39.4194764  98.8455982  42.7496290  39.9698679
 102.8755089  49.0291250  35.6578847 102.2463951  49.1936964  34.9554915
 102.4880751  49.4432860  36.4289811 106.7544321  49.9645688  33.0123211
 106.0695359  50.3444589  32.4620244 106.8388170  50.5741015  33.7455159
 102.0556789  41.0667035  40.9341289 101.8117721  41.8209095  40.3975565
 102.3316720  41.4452382  41.7688536 104.0095252  47.6105647  39.6118555
 104.2212147  48.2537407  38.9352936 103.9625000  46.7767963  39.1440485
 101.6121481  40.2223468  36.5155127 100.7505960  40.5204721  36.8071864
 101.6383916  40.4393866  35.5836159  97.3651937  44.8888810  29.7318498
  98.0675980  45.3409854  30.1992424  97.0332565  44.2472629  30.3598391
  95.8132298  43.4800567  44.1069707  95.1830959  44.1616848  44.3405104
  95.7068386  43.3683649  43.1622845  91.1077271  43.1472363  35.0335631
  90.3176325  43.4029892  34.5575742  91.5988518  43.9620701  35.1387672
 105.1241080  50.4877602  37.7840912 105.9458524  50.0857790  37.5023594
 105.1203483  50.3845836  38.7357028  93.0592016  43.5116942  31.9919108
  92.2623179  43.6235637  32.5102604  92.8317608  43.8503595  31.1259998
  89.3914974  43.4002854  37.4650622  89.6423012  44.2849863  37.7308198
  89.9274522  43.2207455  36.6925714 113.2147073  46.8316351  34.1325884
 112.4610782  46.2623749  33.9769888 113.3494614  46.7979015  35.0796518
  98.6045701  51.7029753  29.8080603  98.4691376  52.5481289  30.2365451
  99.1455514  51.9049031  29.0446537  98.0081002  39.1979212  44.0615215
  98.7490715  39.7986365  43.9819677  98.2398925  38.4556850  43.5033257
  93.1522340  44.3835579  42.3393444  93.0375855  43.4820837  42.6400543
  92.2966858  44.6299276  41.9878261 100.2314178  52.3253320  43.9380945
  99.7878032  51.5389698  43.6201849 100.8931391  52.5132470  43.2724836
 102.3295416  52.6056120  41.9662346 102.3113891  53.4265001  41.4742615
 103.2515336  52.4810195  42.1912487  98.7868470  50.1200249  42.8085855
  99.3196807  49.3588537  42.5785163  98.2582551  49.8273901  43.5510009
 101.9538165  35.2260315  38.3379496 101.6102434  36.1161957  38.2618607
 102.3217127  35.0361973  37.4749081 101.9188448  45.2168926  26.8451931
 101.4035071  45.9873531  27.0840319 101.6465756  44.5434062  27.4684993
  99.5035559  40.0618627  31.9037170  98.6477155  39.6725477  31.7242809
  99.9162510  40.1410588  31.0436955 101.0334705  37.5964970  36.3028730
 100.5299501  37.5595105  35.4896535 101.3265312  38.5057713  36.3625386
  97.2777591  37.6803700  35.3094911  98.1430588  37.4846509  34.9500801
  97.3455100  37.4514052  36.2364268 106.8922722  47.9701281  28.7805105
 106.1152164  47.6312440  28.3360267 107.5714203  47.9753904  28.1060070
 101.7074751  43.0896018  28.6711713 101.4024886  43.4042167  29.5221856
 102.6605193  43.1677438  28.7139046 100.1521183  49.2486241  30.3204667
  99.6242544  48.5139001  30.0077904  99.6508685  50.0260918  30.0744635
 105.1314029  47.4435262  35.4371713 104.4737703  48.1334523  35.5251842
 105.9354428  47.8331694  35.7805699  94.8839910  39.9105908  32.6811278
  95.4583662  39.6881089  31.9484471  95.4710893  39.9794602  33.4339879
 103.9419487  45.7979635  33.4875655 104.4551369  46.4309627  33.9897364
 104.5920711  45.1980830  33.1219015  95.2109497  41.9410369  26.7007163
  94.3746810  42.2785055  27.0216438  95.0714267  41.8059349  25.7634300
  97.1862578  36.7847157  31.4086348  96.5326990  36.4696174  30.7842962
  97.1443052  36.1622897  32.1346170  98.2973783  47.0666452  23.3239640
  97.3900844  46.8355705  23.5230789  98.7944815  46.2704071  23.5113621
 101.2041862  55.7763959  26.2436326 100.5303560  56.0795656  26.8521284
 101.5907684  56.5793039  25.8941783 100.4200318  43.2729090  35.7333995
  99.5022880  43.4944037  35.5755683 100.8360462  43.3475401  34.8745703
 101.2035366  44.6720506  30.8636675 101.9507185  45.1841903  30.5543797
 101.4726956  44.3504559  31.7241069  99.4762016  47.1679047  27.8463630
  98.5673235  46.8838079  27.9436099  99.5057100  47.5878125  26.9866937
 104.7081284  50.7785636  31.6154797 104.2543611  49.9376546  31.6719988
 104.0775250  51.4147034  31.9529577 103.6514203  41.7077622  32.8455465
 102.9136960  41.1955008  33.1765707 103.9040977  41.2678004  32.0338742
 103.1514223  52.6162133  32.5504615 103.4437197  53.1767190  31.8316981
 103.6612843  52.9090694  33.3057775 103.7525830  34.4853874  33.4397234
 104.0584707  33.6251238  33.1523149 104.4778435  35.0771494  33.2396228
  90.0450187  44.8884561  31.8278832  89.8474586  44.2953921  31.1029899
  89.4896851  44.5836771  32.5454771  98.0246910  44.7807667  33.9473425
  98.0795520  43.8281504  33.8715902  97.2138112  44.9367106  34.4314724
  99.1738104  48.7087790  25.1851708  98.7357534  47.9923649  24.7257346
  99.9148545  48.9363905  24.6236800  95.9639270  43.3984727  31.7063804
  95.1507136  43.6978898  32.1128996  96.4598264  43.0040416  32.4238286
 101.5613482  43.8626551  40.5378698 101.9162870  44.0898025  41.3973164
 102.2085613  44.1944928  39.9155953 107.2911219  46.9844987  31.2428027
 107.1529117  47.1746583  30.3149216 106.9347438  47.7464370  31.6996078
 107.3180598  49.0521514  36.2539298 107.7517105  48.9596803  37.1022352
 108.0312179  49.0279015  35.6159314  92.5396412  44.4148595  29.5119784
  91.6094000  44.3533050  29.7289746  92.6353884  43.8924547  28.7156425
  92.4581961  40.9403407  32.0998026  92.7188779  41.8548741  31.9907186
  93.2799134  40.4727850  32.2494639 108.1796148  49.0945215  38.7872184
 108.3732038  49.9991025  39.0331459 108.0796766  48.6352634  39.6210769
  99.8332459  38.9803106  41.2862511  99.1860374  39.6793055  41.1926988
 100.6033474  39.4139249  41.6538759 103.2411257  49.2451958  44.3613064
 103.0896763  49.0162509  43.4443148 103.2315936  50.2022559  44.3744409
 100.0096593  46.8183870  39.3459331 100.9388653  46.9695030  39.1728298
  99.5887623  46.9067891  38.4907977  99.4033077  55.9443631  28.4583405
  99.5784832  55.4731675  29.2729028  98.7165865  56.5709398  28.6864666
 100.3590140  50.2216138  34.5046706 100.0239973  50.1816908  35.4004356
  99.8594086  49.5560854  34.0317116  94.3334384  45.6283768  40.0299287
  94.1954182  44.8964006  40.6310826  95.2439307  45.5392668  39.7483475
 103.2949332  47.5672172  24.7783766 102.6778502  46.8419000  24.6816819
 102.8265820  48.3281532  24.4350840  96.9616685  45.3403727  39.5182967
  97.6716303  44.6996919  39.4769585  96.9185993  45.5916622  40.4409148
 104.9503463  52.2771080  42.4389546 104.8916009  51.5930300  41.7720129
 105.3522982  53.0190070  41.9870172  95.6745619  42.3268945  41.3378607
  95.1382976  41.8759683  41.9900203  95.0862327  42.4614854  40.5949071
  95.0847877  41.7857596  23.9005070  94.2077344  41.6646397  23.5367317
  95.5605631  40.9943675  23.6483959 104.9520871  50.2410664  40.6703526
 104.0647649  49.9036586  40.7929925 105.5219422  49.5093695  40.9072291
 101.5808454  39.9478516  33.7901796 102.0777153  39.1948478  33.4702866
 100.8095435  39.9842833  33.2245005 109.4338211  45.6518882  35.4320088
 109.4228087  46.5343597  35.0614021 108.5655590  45.2990432  35.2374625
 102.6638234  48.7050203  31.3640219 101.7294513  48.8251666  31.1944924
 102.8414903  47.8022670  31.1000229  98.1643422  42.0895899  33.5173481
  97.7941210  41.5366939  34.2054386  98.6602515  41.4854033  32.9648481
 106.0510786  44.5467523  31.8990254 106.5171238  45.3795514  31.8250556
 106.5018286  44.0812504  32.6035512 104.1187017  50.8911344  28.8976406
 104.3946861  50.7767938  29.8070280 103.2491516  50.4928829  28.8588579
 104.0227448  36.9148110  35.9381155 103.1090528  37.1452336  36.1063362
 104.4520550  36.9986554  36.7895187 103.7933907  45.1038002  38.4381049
 103.1405357  45.3513909  37.7833502 104.1714287  44.2902140  38.1043526
 100.7541081  55.1397695  32.5409219 100.9363475  54.3219351  33.0036972
 101.5774067  55.3565387  32.1034109 101.0883246  54.0665880  29.8024268
 101.6171013  53.5558334  29.1894430 101.3511466  53.7508410  30.6669801
  99.8421480  45.8457813  44.9247086  99.1662117  45.7451942  45.5949461
 100.6649114  45.6897026  45.3883083  93.0361029  41.5723022  43.4099621
  93.6633067  41.1900100  44.0237145  92.1788947  41.3537224  43.7755314
 103.4355137  51.9785998  45.0153356 103.9795041  52.5915956  44.5208311
 102.8541982  52.5365576  45.5320369  89.8126571  43.3799451  29.3417976
  90.1080012  42.4710130  29.2885030  88.9114607  43.3587191  29.0198978
 101.7212650  55.1006716  36.1468384 101.5963790  54.2996455  35.6379330
 102.3791741  55.5952909  35.6582354 103.7847558  52.9015736  37.7747934
 102.8377894  52.7821087  37.7026261 104.1330332  52.0138234  37.8574196
  91.5414413  41.0613549  29.4657301  91.2127119  40.1810928  29.2832407
  91.8953784  41.0061218  30.3533690 100.7893992  52.6968452  33.9752287
 100.6418954  51.7685159  34.1559857 101.6147485  52.7188543  33.4909362
  94.6556236  41.3486519  29.8332779  94.9952309  41.8772440  29.1111387
  95.1028357  41.6866925  30.6091345 104.3928114  53.5197011  35.0617159
 105.3174661  53.3139872  34.9241610 104.2243417  53.2713412  35.9706501
  98.0016149  36.8172882  37.7363170  98.8242218  36.3433360  37.6142060
  98.2454212  37.5963366  38.2361856  96.6424383  39.8461141  28.0326071
  97.3632746  40.2242393  27.5289788  96.0189687  40.5650017  28.1361049
 100.7855506  40.5506290  28.9684404 101.0019120  41.4330927  28.6673232
 100.3049573  40.1592503  28.2390046  95.5254727  43.5092003  35.5455148
  95.3799308  43.8232306  36.4379430  95.0479931  44.1276903  34.9926047
  97.3851110  40.4994551  35.5936038  97.3712679  39.6035644  35.2568336
  98.1023538  40.5065214  36.2274324  99.2377241  40.9331891  37.6389165
  98.9795019  41.8548962  37.6373496  98.7062281  40.5362325  38.3289629
 104.1823430  54.0382678  30.4179251 104.3560307  53.4729101  29.6653103
 104.6752321  54.8383573  30.2358741  96.7888006  39.3808931  30.8623608
  96.9103917  38.4525577  31.0614496  96.4990049  39.3947617  29.9501923
  99.6579197  37.0663841  33.9990328  99.6800894  37.1303175  33.0442307
 100.0747256  36.2268350  34.1930834 110.0362821  46.8019101  32.0369550
 110.4793967  46.0526426  31.6388674 109.1589331  46.7929237  31.6543282
 105.1698602  53.3549442  27.5176149 105.8649507  53.9756135  27.7363464
 105.5121752  52.5044794  27.7928527  90.7866412  45.1767243  41.3772966
  90.0448148  45.3249879  41.9637597  90.4659156  45.4375509  40.5139716
 107.0690025  50.8049148  29.0463480 107.5941350  51.1436421  28.3212800
 106.9812378  49.8696163  28.8626614  96.2729086  40.8940928  45.0713541
  96.3217241  41.7703051  44.6891310  96.8151600  40.3518321  44.4985184
 106.7583932  51.4382052  44.3514678 105.9679475  51.4206190  43.8119177
 106.5217286  51.9770345  45.1063714 106.8781807  48.2874518  41.6647406
 106.9279811  48.1224525  42.6062929 106.7695730  47.4201777  41.2745287
  95.7618065  50.9663064  28.9539495  95.9106186  51.6498528  28.3006168
  96.5684509  50.9468154  29.4688951 104.1685569  44.2705446  42.9806713
 105.0695432  44.1311911  42.6890711 104.2433543  44.4359901  43.9204890
  98.5028374  41.6472301  41.8259899  97.6331684  41.9405867  41.5542488
  98.7387855  42.2312746  42.5467163 108.3800003  50.7071460  41.9089428
 108.0884812  51.0701440  42.7452889 107.7672135  49.9938468  41.7302760
 109.5795686  48.2724339  34.4291998 110.4142577  48.7114143  34.5929558
 109.7154815  47.7962992  33.6100244 106.6287192  45.8304074  40.3769486
 107.1041313  46.0231720  39.5688337 105.7052757  45.8863260  40.1312869
  93.5170698  46.9928241  29.9600564  93.2716740  46.0890571  30.1580774
  93.6866613  46.9945392  29.0180042 101.2067408  37.8651918  39.3425320
 101.7249352  38.6012945  39.0171808 100.8522541  38.1715911  40.1772079
  92.7866346  42.7256599  27.4586726  92.0935591  42.8000954  26.8026762
  92.5418098  41.9616943  27.9808242 101.4580002  34.2852200  34.8626216
 101.7381756  33.6175389  35.4886643 102.2430609  34.4781296  34.3500880
  99.2613471  53.4611194  26.4251243  98.6887438  54.0801381  25.9721714
  99.8346264  54.0110556  26.9591165 105.3288861  42.7069834  38.6097791
 106.2806284  42.8067932  38.6310015 105.1592311  41.9148103  39.1195876
 103.3503240  39.7925417  38.7957192 102.7553172  40.0730430  38.1003681
 103.0652937  40.2819318  39.5673933 102.4810731  53.7448344  27.5559825
 103.4141404  53.6793906  27.7592700 102.3933943  54.5804611  27.0974358
 105.1098747  53.0614215  24.5163772 105.0312379  52.7274078  25.4099530
 105.9308414  53.5535983  24.5155245 107.8076938  45.9275954  37.7240091
 107.7753259  44.9891955  37.9099775 108.4177562  46.0059991  36.9905916
  99.6460269  44.7972007  23.7667295 100.5919374  44.6678215  23.8355713
  99.2674514  44.0586669  24.2436723 107.9571427  42.7186997  37.7698374
 107.4410476  41.9345454  37.5828303 108.8411375  42.3905714  37.9344894
 105.6182154  36.4628013  33.7294187 105.4206975  36.1543101  34.6137519
 106.2281859  37.1889652  33.8592117 113.6253488  46.9891961  36.8646128
 114.3556877  46.7277249  37.4253831 113.0160434  46.2520683  36.9048196
 111.7068785  45.1299823  37.4620579 110.9801949  44.9955788  36.8537071
 111.2916072  45.4376652  38.2677297  99.5298962  48.8489753  45.2267952
 100.4501971  49.0268352  45.4207999  99.4948545  47.9045798  45.0747651
  97.8303186  42.7221983  23.7022180  96.9234642  42.4255096  23.7784894
  98.1079167  42.4251801  22.8356467  88.7481127  44.0428347  34.1521227
  88.4283911  43.1893655  33.8595601  88.2014555  44.2576925  34.9079194
  99.4465252  37.2658873  29.8566422  98.6365980  36.9205958  30.2321668
 100.1349669  36.9566417  30.4454033 101.3755800  36.3436920  31.4790718
 101.9286839  36.7632373  32.1380741 101.6125887  35.4172668  31.5213674
  97.3988900  42.3323993  47.2593482  97.2985627  43.2818350  47.1905573
  97.1810442  42.0042232  46.3869552  96.6001971  39.5808918  23.8434160
  97.4621135  39.9063817  24.1029977  96.7852315  38.7940414  23.3307225
 104.7534608  38.4537445  30.9869383 104.1733277  39.1122249  30.6047435
 104.4870540  37.6314790  30.5756800 103.2038174  37.8542503  33.1890703
 103.7037952  37.9659037  32.3805022 103.8473782  37.5503556  33.8291511
  97.2620170  45.7621132  46.0758544  96.7787251  46.5621492  46.2822433
  97.3481109  45.7729077  45.1225988 103.5359486  40.6137535  30.0425731
 102.6485341  40.8987186  29.8245926 103.9513475  40.4531299  29.1953008
 106.8874022  40.6384056  33.7580070 107.6634412  41.1280509  34.0304687
 106.1622156  41.0642111  34.2151940 109.3246580  41.3511676  34.8154011
 109.9191071  41.1107411  34.1047319 109.3973164  40.6318806  35.4427547
 102.6802699  50.3782210  24.1373751 103.3838549  50.5832213  24.7531406
 101.9565348  50.9458972  24.4022834 103.5100509  46.1292071  30.2576021
 103.4535711  46.5860623  29.4183653 104.0628852  45.3682756  30.0798864
 107.3205315  41.9181803  31.0826140 107.0642249  41.5178439  31.9134348
 106.6958183  42.6325597  30.9576280 111.6317653  44.6577876  33.5897432
 111.0717211  44.7271066  34.3628994 111.0261156  44.4818861  32.8696928
 104.5889396  50.8164739  26.1872211 105.4235000  50.3845938  26.0049686
 104.4273739  50.6446753  27.1149105 104.2435289  47.3196853  27.5528550
 104.1884092  47.1541124  26.6116994 103.6181344  48.0272885  27.7090740
 101.5581196  49.6245764  46.8782113 102.4272355  49.7986417  46.5168748
 101.0787947  50.4440181  46.7557842  97.5531414  36.8204962  27.1313869
  97.5410084  37.7646801  27.2882139  98.4454836  36.6375107  26.8373330
 101.3683534  33.4147738  31.3859805 100.6015929  32.8606225  31.5316488
 101.7794238  33.4869607  32.2473957  93.3725295  39.7032534  45.4764987
  94.2356756  39.3469339  45.6868311  92.7990705  39.3646429  46.1640391
 113.2173672  61.3334390  36.2827388 113.8552081  61.2141138  35.5790728
 113.0994514  62.2815234  36.3415340 110.0263378  61.2861818  36.2188912
 109.6881889  61.1702883  35.3309447 110.8953146  60.8852984  36.1989918
 105.8850193  63.1397295  32.2085803 105.3215059  63.0487232  31.4402091
 105.7702589  62.3197199  32.6888296 110.5083161  62.4396670  42.1775118
 110.4971802  62.0449468  41.3055621 110.6703800  61.7062743  42.7708889
 103.4314625  64.6348486  35.0470024 104.2235917  64.2939311  34.6316323
 103.6711276  64.7443461  35.9672177 111.4649752  66.8068263  27.5200268
 110.8137732  67.3922343  27.1334282 112.2594115  67.3374457  27.5795306
 105.3905379  63.8957400  27.9187402 106.1636255  63.3486387  27.7800278
 105.7430778  64.7601649  28.1301864 107.2290422  65.2233782  41.1254302
 106.9380288  66.1279413  41.0100968 107.8647406  65.2650310  41.8398371
 108.1546629  62.6010630  37.7155661 108.7510201  62.3766653  37.0012624
 108.2121600  61.8595376  38.3181109 107.7271657  60.0550066  25.5505852
 107.9797178  59.5331587  24.7889315 106.7896216  59.8916211  25.6532536
 112.7714940  59.0585844  33.3580596 113.5578029  58.6405267  33.0071013
 113.0353644  59.9631936  33.5262244 112.9425017  64.4958694  28.0569252
 112.3070850  64.5693321  28.7690157 112.6122424  65.0852293  27.3788332
 118.1723367  58.9961077  34.2613574 118.9048539  58.4260294  34.4951404
 117.4162723  58.6082678  34.7020080 107.4467946  61.9578172  27.7530227
 107.3304204  61.2823075  28.4211312 107.5570206  61.4710546  26.9362380
 109.7899487  61.4188319  31.4576917 109.4257694  60.8918940  32.1689838
 110.6466603  61.0286788  31.2843402 115.6948787  52.7082651  38.7208183
 115.3632112  53.5778062  38.4969398 115.0994401  52.3918935  39.4002213
 109.4304974  56.4478219  26.4538265 109.5979376  57.3158455  26.8208736
 109.2402143  56.6105500  25.5299554 112.1880307  64.9095197  38.1204095
 111.8881030  65.8120236  38.0119903 111.8431367  64.6427381  38.9725248
 105.6392788  61.3608994  34.1540800 104.7143285  61.2285208  34.3618492
 105.8877202  62.1403214  34.6510742 115.5877451  57.4277738  35.8001533
 114.6794328  57.3593146  35.5060294 115.5365047  57.9049683  36.6283358
 109.4094195  58.9035876  27.4384932 109.2893820  59.3492927  28.2770412
 108.7146783  59.2521194  26.8798470 103.0001600  61.0042268  34.9884589
 103.1293981  61.2576747  35.9024001 102.3199051  61.5969976  34.6689244
 107.1701087  71.6739518  31.0875063 107.0925117  72.6247343  31.1663544
 106.5662730  71.3285390  31.7449989 109.6618317  58.8467383  43.7436430
 108.8851651  59.4061303  43.7339295 110.3008880  59.3324166  44.2651300
 117.4539097  55.6294176  37.5779407 116.8113477  55.9226709  36.9319201
 116.9494026  55.5147096  38.3832603 115.1079261  59.3757349  28.2665266
 116.0197117  59.6084736  28.0912964 114.5988908  59.9594393  27.7040345
 107.9164689  61.6552837  43.3054397 108.6579373  62.1937881  43.0289221
 107.2101674  62.2819125  43.4625949 113.3920029  63.7981977  41.9026559
 113.8003385  63.3564388  41.1581191 112.6697290  63.2234605  42.1560751
 109.7451099  58.7354584  39.2760115 110.5912294  59.1593997  39.4194764
 109.6849736  58.0788208  39.9698679 113.7148843  64.3583168  35.6578847
 113.0857706  64.5228882  34.9554915 113.3274505  64.7724777  36.4289811
 117.5938075  65.2937606  33.0123211 116.9089113  65.6736507  32.4620244
 117.6781924  65.9032932  33.7455159 112.8950544  56.3958952  40.9341289
 112.6511476  57.1501013  40.3975565 113.1710474  56.7744300  41.7688536
 114.8489007  62.9397565  39.6118555 115.0605902  63.5829324  38.9352936
 114.8018755  62.1059881  39.1440485 112.4515236  55.5515385  36.5155127
 111.5899715  55.8496639  36.8071864 112.4777670  55.7685784  35.5836159
 109.2676805  64.0957576  32.9228933 109.7315151  64.3745279  32.1333555
 109.0033603  63.1941020  32.7402023 106.1600886  63.6429057  35.8608696
 106.7302243  64.0716326  35.2226180 106.7508998  63.3611642  36.5592881
 108.2045691  60.2180728  29.7318498 108.9069734  60.6701772  30.1992424
 107.8726320  59.5764547  30.3598391 106.6526053  58.8092485  44.1069707
 106.0224713  59.4908766  44.3405104 106.5462141  58.6975566  43.1622845
 101.9471025  58.4764281  35.0335631 101.1570079  58.7321809  34.5575742
 102.4382272  59.2912619  35.1387672 115.9634835  65.8169520  37.7840912
 116.7852278  65.4149707  37.5023594 115.9597237  65.7137754  38.7357028
 103.8985770  58.8408860  31.9919108 103.1016934  58.9527554  32.5102604
 103.6711363  59.1795512  31.1259998 109.7291438  65.3653563  39.9401623
 109.7935871  65.8273971  40.7759794 109.0202362  64.7350928  40.0683932
 109.4439456  67.0321671  29.8080603 109.3085131  67.8773206  30.2365451
 109.9849268  67.2340948  29.0446537 105.9306795  53.1113251  46.4694958
 105.5373741  52.5579449  47.1442602 106.7472936  53.4223829  46.8601476
 102.8968853  64.5497109  30.3808528 103.4093374  65.3440359  30.5314093
 103.5491566  63.8523399  30.3142129 104.7063738  67.6662865  32.4631281
 104.8830366  68.5880830  32.2752265 105.5020571  67.3521284  32.8925661
 108.8474756  54.5271130  44.0615215 109.5884470  55.1278283  43.9819677
 109.0792679  53.7848768  43.5033257 111.0707932  67.6545237  43.9380945
 110.6271786  66.8681616  43.6201849 111.7325146  67.8424388  43.2724836
 105.8295053  69.1841039  38.4641623 106.3802478  69.0558102  37.6918617
 104.9906529  69.4835928  38.1136516 113.1689170  67.9348037  41.9662346
 113.1507646  68.7556918  41.4742615 114.0909090  67.8102112  42.1912487
 109.6262224  65.4492167  42.8085855 110.1590561  64.6880455  42.5785163
 109.0976305  65.1565819  43.5510009 112.7931919  50.5552233  38.3379496
 112.4496189  51.4453874  38.2618607 113.1610882  50.3653890  37.4749081
 112.7582202  60.5460844  26.8451931 112.2428825  61.3165448  27.0840319
 112.4859510  59.8725980  27.4684993 110.3429313  55.3910545  31.9037170
 109.4870909  55.0017395  31.7242809 110.7556265  55.4702505  31.0436955
 111.8728460  52.9256888  36.3028730 111.3693255  52.8887023  35.4896535
 112.1659067  53.8349631  36.3625386 108.1171346  53.0095618  35.3094911
 108.9824342  52.8138426  34.9500801 108.1848854  52.7805969  36.2364268
 117.7316476  63.2993198  28.7805105 116.9545919  62.9604358  28.3360267
 118.4107957  63.3045822  28.1060070 112.5468505  58.4187936  28.6711713
 112.2418641  58.7334085  29.5221856 113.4998947  58.4969356  28.7139046
 110.9914937  64.5778159  30.3204667 110.4636299  63.8430919  30.0077904
 110.4902440  65.3552836  30.0744635 115.9707783  62.7727180  35.4371713
 115.3131457  63.4626441  35.5251842 116.7748182  63.1623612  35.7805699
 105.7233665  55.2397825  32.6811278 106.2977417  55.0173007  31.9484471
 106.3104647  55.3086520  33.4339879 114.7813242  61.1271552  33.4875655
 115.2945124  61.7601544  33.9897364 115.4314466  60.5272748  33.1219015
 106.0503252  57.2702286  26.7007163 105.2140564  57.6076973  27.0216438
 105.9108021  57.1351266  25.7634300 108.0256332  52.1139074  31.4086348
 107.3720745  51.7988092  30.7842962 107.9836806  51.4914815  32.1346170
 109.1367537  62.3958369  23.3239640 108.2294599  62.1647623  23.5230789
 109.6338569  61.5995989  23.5113621 112.0435616  71.1055877  26.2436326
 111.3697315  71.4087573  26.8521284 112.4301438  71.9084957  25.8941783
 111.2594073  58.6021008  35.7333995 110.3416634  58.8235955  35.5755683
 111.6754216  58.6767318  34.8745703 112.0429120  60.0012424  30.8636675
 112.7900939  60.5133821  30.5543797 112.3120710  59.6796476  31.7241069
 110.3155771  62.4970964  27.8463630 109.4066990  62.2129997  27.9436099
 110.3450854  62.9170043  26.9866937 115.5475038  66.1077554  31.6154797
 115.0937365  65.2668464  31.6719988 114.9169005  66.7438952  31.9529577
 114.4907958  57.0369540  32.8455465 113.7530714  56.5246926  33.1765707
 114.7434731  56.5969921  32.0338742 113.9907977  67.9454050  32.5504615
 114.2830952  68.5059108  31.8316981 114.5006598  68.2382611  33.3057775
 114.5919585  49.8145792  33.4397234 114.8978462  48.9543155  33.1523149
 115.3172190  50.4063412  33.2396228 108.8640665  60.1099585  33.9473425
 108.9189274  59.1573421  33.8715902 108.0531867  60.2659024  34.4314724
 110.0131858  64.0379708  25.1851708 109.5751288  63.3215567  24.7257346
 110.7542299  64.2655823  24.6236800 106.8033025  58.7276645  31.7063804
 105.9900890  59.0270815  32.1128996 107.2992019  58.3332333  32.4238286
 108.9541602  68.7234402  33.6398069 108.9117781  68.9495248  32.7106601
 109.8704301  68.4897776  33.7883870 112.4007236  59.1918469  40.5378698
 112.7556624  59.4189942  41.3973164 113.0479368  59.5236846  39.9155953
 118.1304973  62.3136905  31.2428027 117.9922872  62.5038501  30.3149216
 117.7741192  63.0756288  31.6996078 106.2947099  56.2995000  37.3225039
 106.9346479  56.1583759  36.6248002 105.4624630  56.0129514  36.9463641
 118.1574353  64.3813432  36.2539298 118.5910860  64.2888721  37.1022352
 118.8705934  64.3570932  35.6159314 107.0707403  65.5997431  33.4360031
 107.8648002  65.1047751  33.2342606 106.3599096  65.0715294  33.0727737
 111.8902248  67.9815526  37.7872399 111.9439270  68.5506462  38.5550115
 111.0217029  68.1517411  37.4226436 103.3790167  59.7440512  29.5119784
 102.4487755  59.6824968  29.7289746 103.4747639  59.2216465  28.7156425
 103.2975716  56.2695325  32.0998026 103.5582533  57.1840658  31.9907186
 104.1192888  55.8019768  32.2494639 104.7700641  57.6833082  39.2696850
 105.4423695  57.4750444  38.6209499 103.9430428  57.4855168  38.8302083
 119.0189902  64.4237133  38.7872184 119.2125792  65.3282943  39.0331459
 118.9190521  63.9644552  39.6210769 110.6726213  54.3095023  41.2862511
 110.0254128  55.0084973  41.1926988 111.4427229  54.7431167  41.6538759
 114.0805011  64.5743875  44.3613064 113.9290517  64.3454427  43.4443148
 114.0709691  65.5314477  44.3744409 110.8490347  62.1475788  39.3459331
 111.7782407  62.2986948  39.1728298 110.4281378  62.2359809  38.4907977
 109.6478679  66.1726453  37.1157868 109.5089765  65.8045237  37.9883807
 108.8593275  66.6874092  36.9441826 110.2426831  71.2735549  28.4583405
 110.4178587  70.8023592  29.2729028 109.5559619  71.9001315  28.6864666
 111.1983894  65.5508055  34.5046706 110.8633727  65.5108825  35.4004356
 110.6987840  64.8852771  34.0317116 105.1728138  60.9575685  40.0299287
 105.0347936  60.2255924  40.6310826 106.0833062  60.8684585  39.7483475
 114.1343086  62.8964090  24.7783766 113.5172257  62.1710918  24.6816819
 113.6659575  63.6573450  24.4350840 107.8010439  60.6695645  39.5182967
 108.5110058  60.0288837  39.4769585 107.7579747  60.9208539  40.4409148
 115.7897218  67.6062998  42.4389546 115.7309764  66.9222218  41.7720129
 116.1916736  68.3481988  41.9870172 106.5139373  57.6560863  41.3378607
 105.9776730  57.2051601  41.9900203 105.9256081  57.7906771  40.5949071
 104.8087917  74.4224912  35.2323265 105.0484515  75.0543436  35.9102284
 103.9657113  74.0712952  35.5188624 105.9241632  57.1149514  23.9005070
 105.0471098  56.9938315  23.5367317 106.3999385  56.3235592  23.6483959
 115.7914625  65.5702582  40.6703526 114.9041404  65.2328504  40.7929925
 116.3613176  64.8385613  40.9072291 102.2478494  56.7916870  38.4231601
 102.1636683  56.1842540  37.6882011 101.4261201  57.2825889  38.4241097
 109.3215778  70.2304034  37.6364769 109.2485950  71.0359006  38.1484074
 108.8793171  70.4296000  36.8112791 109.1105558  69.4675804  31.1467591
 108.3273080  70.0097484  31.2405815 109.8098303  69.9849784  31.5461832
 112.4202208  55.2770434  33.7901796 112.9170908  54.5240396  33.4702866
 111.6489190  55.3134750  33.2245005 120.2731966  60.9810799  35.4320088
 120.2621842  61.8635515  35.0614021 119.4049345  60.6282350  35.2374625
 111.7814462  70.1290868  39.7922928 112.4942434  70.7638333  39.7198829
 111.2904491  70.2254734  38.9762930 113.5031989  64.0342121  31.3640219
 112.5688268  64.1543583  31.1944924 113.6808657  63.1314588  31.1000229
 109.0037177  57.4187817  33.5173481 108.6334964  56.8658857  34.2054386
 109.4996269  56.8145950  32.9648481 116.8904540  59.8759440  31.8990254
 117.3564992  60.7087432  31.8250556 117.3412041  59.4104422  32.6035512
 106.8326375  67.8785312  40.6128499 107.5335835  68.5121795  40.7657893
 106.3621490  68.2200043  39.8524138 114.9580771  66.2203262  28.8976406
 115.2340615  66.1059856  29.8070280 114.0885270  65.8220746  28.8588579
 114.8621203  52.2440027  35.9381155 113.9484283  52.4744254  36.1063362
 115.2914304  52.3278471  36.7895187 114.6327661  60.4329919  38.4381049
 113.9799112  60.6805827  37.7833502 115.0108041  59.6194057  38.1043526
 111.5934835  70.4689612  32.5409219 111.7757230  69.6511268  33.0036972
 112.4167821  70.6857305  32.1034109 111.9277001  69.3957798  29.8024268
 112.4564767  68.8850252  29.1894430 112.1905220  69.0800328  30.6669801
 110.6815234  61.1749730  44.9247086 110.0055871  61.0743860  45.5949461
 111.5042868  61.0188944  45.3883083 102.4294094  67.4121667  37.5459601
 103.0147530  66.6665355  37.6787506 102.2318932  67.7225624  38.4296265
 105.2832749  70.4472914  32.5622044 104.6143124  70.9319042  32.0786084
 105.1445618  70.6942135  33.4765422 109.4238017  72.4816658  39.1604702
 109.9756325  72.6448279  39.9253787 109.7644211  73.0721096  38.4884727
 104.4002511  54.8291808  39.7626587 104.4643837  55.6906638  39.3503984
 104.3369631  54.2165809  39.0298945 103.8754783  56.9014940  43.4099621
 104.5026822  56.5192017  44.0237145 103.0182702  56.6829142  43.7755314
 114.2748892  67.3077915  45.0153356 114.8188796  67.9207873  44.5208311
 113.6935736  67.8657494  45.5320369 112.5606405  70.4298633  36.1468384
 112.4357544  69.6288373  35.6379330 113.2185496  70.9244827  35.6582354
 104.1814573  56.7847366  35.3245524 103.4601159  57.3983333  35.1852998
 104.9707829  57.3205131  35.2462170 114.6241313  68.2307653  37.7747934
 113.6771649  68.1113005  37.7026261 114.9724086  67.3430151  37.8574196
 106.9840886  54.1201792  41.5986176 107.5075288  54.3664089  42.3612486
 106.7653220  54.9521827  41.1789314 102.3808167  56.3905467  29.4657301
 102.0520874  55.5102846  29.2832407 102.7347538  56.3353136  30.3533690
 111.6287746  68.0260370  33.9752287 111.4812709  67.0977077  34.1559857
 112.4541240  68.0480460  33.4909362 105.4949991  56.6778437  29.8332779
 105.8346063  57.2064358  29.1111387 105.9422111  57.0158843  30.6091345
 115.2321868  68.8488928  35.0617159 116.1568416  68.6431790  34.9241610
 115.0637171  68.6005329  35.9706501 108.1893431  55.0615487  39.2835847
 107.8490252  54.2623300  39.6856527 107.4832438  55.3617198  38.7112680
 108.8409903  52.1464800  37.7363170 109.6635973  51.6725278  37.6142060
 109.0847967  52.9255284  38.2361856 107.4818138  55.1753058  28.0326071
 108.2026500  55.5534311  27.5289788 106.8583442  55.8941935  28.1361049
 111.6249261  55.8798207  28.9684404 111.8412875  56.7622845  28.6673232
 111.1443328  55.4884421  28.2390046 106.3648482  58.8383920  35.5455148
 106.2193063  59.1524223  36.4379430 105.8873686  59.4568821  34.9926047
 108.2244865  55.8286468  35.5936038 108.2106434  54.9327562  35.2568336
 108.9417293  55.8357132  36.2274324 110.0770996  56.2623809  37.6389165
 109.8188773  57.1840879  37.6373496 109.5456036  55.8654243  38.3289629
 115.0217184  69.3674596  30.4179251 115.1954062  68.8021018  29.6653103
 115.5146076  70.1675491  30.2358741 100.8394144  61.3789265  38.4842810
 100.2947612  62.1549073  38.6163084 101.7173494  61.7260069  38.3261931
 107.6281761  54.7100849  30.8623608 107.7497672  53.7817495  31.0614496
 107.3383803  54.7239535  29.9501923 110.4972951  52.3955759  33.9990328
 110.5194648  52.4595092  33.0442307 110.9141010  51.5560268  34.1930834
 120.8756575  62.1311019  32.0369550 121.3187722  61.3818344  31.6388674
 119.9983086  62.1221155  31.6543282 116.0092357  68.6841360  27.5176149
 116.7043261  69.3048053  27.7363464 116.3515507  67.8336711  27.7928527
 117.9083780  66.1341066  29.0463480 118.4335104  66.4728338  28.3212800
 117.8206132  65.1988081  28.8626614 109.5703829  70.0475139  41.1753356
 109.8790955  69.8024286  42.0476056 110.3679311  70.2521778  40.6872227
 109.5924441  72.2013049  33.4058733 109.1529431  71.7089428  34.0991590
 110.3432558  71.6586017  33.1650808 102.0716780  68.3924590  33.4083361
 102.8974800  68.0928362  33.0282005 101.7210832  67.6232212  33.8573150
 107.0398313  67.7451058  35.4781035 106.4178322  67.0821763  35.1783262
 107.7103180  67.7712190  34.7954682 107.1122840  56.2232846  45.0713541
 107.1610996  57.0994969  44.6891310 107.6545355  55.6810239  44.4985184
 117.5977686  66.7673969  44.3514678 116.8073230  66.7498108  43.8119177
 117.3611041  67.3062263  45.1063714 117.7175561  63.6166436  41.6647406
 117.7673566  63.4516443  42.6062929 117.6089484  62.7493695  41.2745287
 106.6011820  66.2954981  28.9539495 106.7499940  66.9790446  28.3006168
 107.4078263  66.2760071  29.4688951 115.0079323  59.5997364  42.9806713
 115.9089186  59.4603829  42.6890711 115.0827298  59.7651819  43.9204890
 109.3422129  56.9764218  41.8259899 108.4725438  57.2697785  41.5542488
 109.5781609  57.5604663  42.5467163 119.2193758  66.0363377  41.9089428
 118.9278566  66.3993358  42.7452889 118.6065889  65.3230385  41.7302760
 120.4189440  63.6016257  34.4291998 121.2536332  64.0406061  34.5929558
 120.5548569  63.1254910  33.6100244 117.4680946  61.1595992  40.3769486
 117.9435068  61.3523638  39.5688337 116.5446511  61.2155178  40.1312869
 104.3564453  62.3220159  29.9600564 104.1110495  61.4182489  30.1580774
 104.5260367  62.3237309  29.0180042 112.0461163  53.1943835  39.3425320
 112.5643106  53.9304862  39.0171808 111.6916295  53.5007829  40.1772079
 103.6260100  58.0548517  27.4586726 102.9329345  58.1292872  26.8026762
 103.3811852  57.2908860  27.9808242 112.2973757  49.6144118  34.8626216
 112.5775511  48.9467307  35.4886643 113.0824364  49.8073214  34.3500880
 110.1007225  68.7903112  26.4251243 109.5281192  69.4093299  25.9721714
 110.6740019  69.3402473  26.9591165 116.1682615  58.0361752  38.6097791
 117.1200038  58.1359850  38.6310015 115.9986066  57.2440020  39.1195876
 114.1896995  55.1217335  38.7957192 113.5946927  55.4022348  38.1003681
 113.9046691  55.6111236  39.5673933 113.3204485  69.0740262  27.5559825
 114.2535158  69.0085824  27.7592700 113.2327698  69.9096529  27.0974358
 115.9492502  68.3906132  24.5163772 115.8706133  68.0565996  25.4099530
 116.7702169  68.8827900  24.5155245 118.6470693  61.2567872  37.7240091
 118.6147013  60.3183872  37.9099775 119.2571317  61.3351908  36.9905916
 110.4854024  60.1263925  23.7667295 111.4313128  59.9970133  23.8355713
 110.1068269  59.3878586  24.2436723 118.7965181  58.0478915  37.7698374
 118.2804230  57.2637372  37.5828303 119.6805130  57.7197632  37.9344894
 116.4575908  51.7919931  33.7294187 116.2600729  51.4835019  34.6137519
 117.0675614  52.5181570  33.8592117 110.3692716  64.1781671  45.2267952
 111.2895726  64.3560270  45.4207999 110.3342299  63.2337716  45.0747651
 108.6696941  58.0513901  23.7022180 107.7628396  57.7547014  23.7784894
 108.9472922  57.7543719  22.8356467 103.3654789  62.0882705  37.8690733
 103.5840799  63.0199813  37.8878767 103.7780563  61.7290680  38.6545537
 110.2859007  52.5950791  29.8566422 109.4759735  52.2497876  30.2321668
 110.9743424  52.2858334  30.4454033 112.2149555  51.6728837  31.4790718
 112.7680594  52.0924291  32.1380741 112.4519641  50.7464586  31.5213674
 108.2382654  57.6615911  47.2593482 108.1379381  58.6110268  47.1905573
 108.0204196  57.3334150  46.3869552 107.4395726  54.9100836  23.8434160
 108.3014890  55.2355734  24.1029977 107.6246070  54.1232332  23.3307225
 115.5928362  53.7829363  30.9869383 115.0127031  54.4414167  30.6047435
 115.3264295  52.9606707  30.5756800 114.0431928  53.1834420  33.1890703
 114.5431707  53.2950955  32.3805022 114.6867536  52.8795473  33.8291511
 108.1013924  61.0913050  46.0758544 107.6181006  61.8913410  46.2822433
 108.1874863  61.1020995  45.1225988 104.0287262  64.9817585  38.1126978
 104.9830515  64.9501527  38.0456909 103.8299785  64.5208208  38.9277204
 104.6186644  63.5518701  40.6797775 105.4379533  64.0462779  40.7032613
 104.8923452  62.6350669  40.6515343 114.3753240  55.9429453  30.0425731
 113.4879095  56.2279104  29.8245926 114.7907229  55.7823216  29.1953008
 117.7267776  55.9675974  33.7580070 118.5028166  56.4572426  34.0304687
 117.0015910  56.3934028  34.2151940 120.1640335  56.6803593  34.8154011
 120.7584826  56.4399329  34.1047319 120.2366919  55.9610724  35.4427547
 102.3837490  70.5237204  35.1297175 102.2491958  69.7637605  34.5635174
 101.9669553  71.2478104  34.6625964 113.5196454  65.7074128  24.1373751
 114.2232304  65.9124130  24.7531406 112.7959102  66.2750890  24.4022834
 114.3494264  61.4583989  30.2576021 114.2929465  61.9152540  29.4183653
 114.9022606  60.6974674  30.0798864 118.1599070  57.2473721  31.0826140
 117.9036004  56.8470356  31.9134348 117.5351938  57.9617515  30.9576280
 122.4711408  59.9869794  33.5897432 121.9110966  60.0562983  34.3628994
 121.8654911  59.8110779  32.8696928 105.5406616  71.4206521  35.3415618
 105.4239001  72.3651954  35.2394308 104.7199063  71.1180083  35.7301417
 115.4283151  66.1456657  26.1872211 116.2628755  65.7137855  26.0049686
 115.2667494  65.9738671  27.1149105 115.0829043  62.6488770  27.5528550
 115.0277847  62.4833042  26.6116994 114.4575098  63.3564803  27.7090740
 112.3974950  64.9537682  46.8782113 113.2666110  65.1278334  46.5168748
 111.9181702  65.7732099  46.7557842 108.3925169  52.1496879  27.1313869
 108.3803838  53.0938719  27.2882139 109.2848590  51.9667025  26.8373330
 106.5661130  72.0734783  38.5571547 107.4688377  72.1058393  38.8738042
 106.3398501  71.1435234  38.5717882 108.3214733  70.8265770  35.2181625
 107.3710364  70.8267631  35.1045997 108.6247219  70.0798504  34.7017660
 112.2077288  48.7439656  31.3859805 111.4409684  48.1898143  31.5316488
 112.6187993  48.8161525  32.2473957 104.2119049  55.0324452  45.4764987
 105.0750511  54.6761256  45.6868311 103.6384460  54.6938346  46.1640391
 120.8657132  76.6153736  36.2188912 120.5275644  76.4994801  35.3309447
 121.7346900  76.2144901  36.1989918 116.7243948  78.4689213  32.2085803
 116.1608813  78.3779149  31.4402091 116.6096343  77.6489117  32.6888296
 121.3476915  77.7688588  42.1775118 121.3365556  77.3741386  41.3055621
 121.5097555  77.0354660  42.7708889 114.2708380  79.9640404  35.0470024
 115.0629672  79.6231229  34.6316323 114.5105030  80.0735379  35.9672177
 116.2299134  79.2249317  27.9187402 117.0030010  78.6778304  27.7800278
 116.5824533  80.0893567  28.1301864 118.0684176  80.5525700  41.1254302
 117.7774042  81.4571330  41.0100968 118.7041161  80.5942227  41.8398371
 118.9940383  77.9302548  37.7155661 119.5903956  77.7058571  37.0012624
 119.0515355  77.1887294  38.3181109 118.5665412  75.3841983  25.5505852
 118.8190932  74.8623505  24.7889315 117.6289971  75.2208129  25.6532536
 118.2861700  77.2870089  27.7530227 118.1697959  76.6114993  28.4211312
 118.3963960  76.8002463  26.9362380 120.6293241  76.7480237  31.4576917
 120.2651449  76.2210858  32.1689838 121.4860357  76.3578706  31.2843402
 120.2698728  71.7770136  26.4538265 120.4373131  72.6450373  26.8208736
 120.0795897  71.9397418  25.5299554 116.4786543  76.6900912  34.1540800
 115.5537039  76.5577126  34.3618492 116.7270956  77.4695131  34.6510742
 120.2487949  74.2327794  27.4384932 120.1287574  74.6784845  28.2770412
 119.5540538  74.5813111  26.8798470 113.8395354  76.3334186  34.9884589
 113.9687735  76.5868664  35.9024001 113.1592805  76.9261894  34.6689244
 118.0094841  87.0031435  31.0875063 117.9318871  87.9539261  31.1663544
 117.4056485  86.6577308  31.7449989 120.5012071  74.1759301  43.7436430
 119.7245405  74.7353221  43.7339295 121.1402634  74.6616084  44.2651300
 118.7558443  76.9844754  43.3054397 119.4973128  77.5229798  43.0289221
 118.0495429  77.6111043  43.4625949 120.5844853  74.0646502  39.2760115
 121.4306048  74.4885915  39.4194764 120.5243491  73.4080126  39.9698679
 120.1070560  79.4249493  32.9228933 120.5708905  79.7037196  32.1333555
 119.8427358  78.5232938  32.7402023 116.9994641  78.9720975  35.8608696
 117.5695998  79.4008243  35.2226180 117.5902752  78.6903560  36.5592881
 119.0439446  75.5472646  29.7318498 119.7463489  75.9993689  30.1992424
 118.7120074  74.9056465  30.3598391 117.4919807  74.1384402  44.1069707
 116.8618468  74.8200683  44.3405104 117.3855895  74.0267484  43.1622845
 112.7864780  73.8056198  35.0335631 111.9963834  74.0613727  34.5575742
 113.2776027  74.6204536  35.1387672 114.7379525  74.1700778  31.9919108
 113.9410688  74.2819472  32.5102604 114.5105117  74.5087430  31.1259998
 120.5685193  80.6945481  39.9401623 120.6329625  81.1565888  40.7759794
 119.8596116  80.0642846  40.0683932 111.0702483  74.0586689  37.4650622
 111.3210521  74.9433699  37.7308198 111.6062031  73.8791290  36.6925714
 120.2833210  82.3613588  29.8080603 120.1478885  83.2065124  30.2365451
 120.8243023  82.5632866  29.0446537 116.7700550  68.4405168  46.4694958
 116.3767495  67.8871367  47.1442602 117.5866690  68.7515747  46.8601476
 113.7362608  79.8789026  30.3808528 114.2487128  80.6732277  30.5314093
 114.3885320  79.1815317  30.3142129 115.5457492  82.9954783  32.4631281
 115.7224121  83.9172747  32.2752265 116.3414326  82.6813202  32.8925661
 119.6868511  69.8563047  44.0615215 120.4278224  70.4570201  43.9819677
 119.9186434  69.1140685  43.5033257 114.8309849  75.0419415  42.3393444
 114.7163364  74.1404672  42.6400543 113.9754367  75.2883111  41.9878261
 116.6688808  84.5132957  38.4641623 117.2196233  84.3850020  37.6918617
 115.8300284  84.8127846  38.1136516 120.4655979  80.7784084  42.8085855
 120.9984316  80.0172373  42.5785163 119.9370060  80.4857736  43.5510009
 111.7011524  78.2077681  31.1568098 112.5386746  78.6174689  30.9401806
 111.8789792  77.2677123  31.1268292 121.1823068  70.7202462  31.9037170
 120.3264664  70.3309313  31.7242809 121.5950019  70.7994423  31.0436955
 118.9565100  68.3387535  35.3094911 119.8218097  68.1430344  34.9500801
 119.0242609  68.1097887  36.2364268 121.8308692  79.9070077  30.3204667
 121.3030053  79.1722836  30.0077904 121.3296194  80.6844753  30.0744635
 116.5627419  70.5689743  32.6811278 117.1371171  70.3464925  31.9484471
 117.1498402  70.6378438  33.4339879 116.8897006  72.5994204  26.7007163
 116.0534318  72.9368891  27.0216438 116.7501776  72.4643184  25.7634300
 118.8650087  67.4430992  31.4086348 118.2114499  67.1280009  30.7842962
 118.8230561  66.8206732  32.1346170 119.9761292  77.7250287  23.3239640
 119.0688353  77.4939541  23.5230789 120.4732324  76.9287906  23.5113621
 121.1549525  77.8262882  27.8463630 120.2460744  77.5421915  27.9436099
 121.1844609  78.2461961  26.9866937 111.7237696  75.5468396  31.8278832
 111.5262095  74.9537757  31.1029899 111.1684360  75.2420606  32.5454771
 119.7034419  75.4391503  33.9473425 119.7583029  74.4865339  33.8715902
 118.8925621  75.5950942  34.4314724 120.8525613  79.3671626  25.1851708
 120.4145043  78.6507485  24.7257346 121.5936054  79.5947740  24.6236800
 117.6426779  74.0568562  31.7063804 116.8294645  74.3562733  32.1128996
 118.1385773  73.6624251  32.4238286 119.7935357  84.0526319  33.6398069
 119.7511536  84.2787166  32.7106601 120.7098056  83.8189694  33.7883870
 117.1340854  71.6286918  37.3225039 117.7740233  71.4875677  36.6248002
 116.3018384  71.3421431  36.9463641 117.9101158  80.9289348  33.4360031
 118.7041756  80.4339668  33.2342606 117.1992850  80.4007211  33.0727737
 114.2183921  75.0732430  29.5119784 113.2881509  75.0116885  29.7289746
 114.3141393  74.5508383  28.7156425 114.1369470  71.5987243  32.0998026
 114.3976288  72.5132576  31.9907186 114.9586643  71.1311685  32.2494639
 115.6094396  73.0125000  39.2696850 116.2817449  72.8042362  38.6209499
 114.7824182  72.8147086  38.8302083 121.5119968  69.6386941  41.2862511
 120.8647883  70.3376891  41.1926988 122.2820983  70.0723085  41.6538759
 120.4872434  81.5018370  37.1157868 120.3483519  81.1337155  37.9883807
 119.6987030  82.0166010  36.9441826 121.0820586  86.6027467  28.4583405
 121.2572341  86.1315510  29.2729028 120.3953374  87.2293233  28.6864666
 122.0377649  80.8799973  34.5046706 121.7027482  80.8400743  35.4004356
 121.5381595  80.2144689  34.0317116 116.0121893  76.2867603  40.0299287
 115.8741691  75.5547842  40.6310826 116.9226816  76.1976503  39.7483475
 118.6404194  75.9987562  39.5182967 119.3503812  75.3580755  39.4769585
 118.5973502  76.2500457  40.4409148 117.3533128  72.9852780  41.3378607
 116.8170485  72.5343519  41.9900203 116.7649836  73.1198689  40.5949071
 115.6481671  89.7516829  35.2323265 115.8878269  90.3835354  35.9102284
 114.8050867  89.4004870  35.5188624 116.7635386  72.4441432  23.9005070
 115.8864853  72.3230232  23.5367317 117.2393140  71.6527510  23.6483959
 108.2837527  77.2318591  33.9946577 108.9708566  76.9180321  33.4067593
 108.1285655  78.1359956  33.7213829 113.0872249  72.1208788  38.4231601
 113.0030437  71.5134457  37.6882011 112.2654955  72.6117806  38.4241097
 120.1609533  85.5595952  37.6364769 120.0879704  86.3650923  38.1484074
 119.7186926  85.7587918  36.8112791 119.9499312  84.7967722  31.1467591
 119.1666834  85.3389402  31.2405815 120.6492058  85.3141702  31.5461832
 119.8430931  72.7479734  33.5173481 119.4728719  72.1950775  34.2054386
 120.3390024  72.1437868  32.9648481 117.6720130  83.2077229  40.6128499
 118.3729589  83.8413712  40.7657893 117.2015245  83.5491961  39.8524138
 121.5208989  76.5041648  44.9247086 120.8449626  76.4035777  45.5949461
 122.3436623  76.3480862  45.3883083 113.2687848  82.7413584  37.5459601
 113.8541285  81.9957272  37.6787506 113.0712686  83.0517541  38.4296265
 116.1226503  85.7764832  32.5622044 115.4536878  86.2610959  32.0786084
 115.9839373  86.0234052  33.4765422 107.8605503  75.3119185  36.2664044
 107.8989602  74.7782775  37.0601163 107.3545796  74.7854390  35.6475022
 120.2631772  87.8108575  39.1604702 120.8150080  87.9740197  39.9253787
 120.6037965  88.4013013  38.4884727 115.2396265  70.1583725  39.7626587
 115.3037592  71.0198556  39.3503984 115.1763385  69.5457727  39.0298945
 114.7148538  72.2306858  43.4099621 115.3420576  71.8483935  44.0237145
 113.8576456  72.0121060  43.7755314 111.4914080  74.0383287  29.3417976
 111.7867521  73.1293965  29.2885030 110.5902116  74.0171026  29.0198978
 115.0208327  72.1139283  35.3245524 114.2994913  72.7275251  35.1852998
 115.8101583  72.6497048  35.2462170 117.8234641  69.4493710  41.5986176
 118.3469043  69.6956006  42.3612486 117.6046974  70.2813745  41.1789314
 113.2201922  71.7197384  29.4657301 112.8914628  70.8394763  29.2832407
 113.5741293  71.6645053  30.3533690 116.3343745  72.0070354  29.8332779
 116.6739818  72.5356276  29.1111387 116.7815866  72.3450760  30.6091345
 119.0287186  70.3907405  39.2835847 118.6884006  69.5915218  39.6856527
 118.3226192  70.6909116  38.7112680 119.6803658  67.4756717  37.7363170
 120.5029727  67.0017196  37.6142060 119.9241721  68.2547201  38.2361856
 118.3211892  70.5044976  28.0326071 119.0420255  70.8826229  27.5289788
 117.6977196  71.2233853  28.1361049 117.2042236  74.1675838  35.5455148
 117.0586817  74.4816141  36.4379430 116.7267440  74.7860738  34.9926047
 119.0638619  71.1578386  35.5936038 119.0500188  70.2619479  35.2568336
 119.7811047  71.1649050  36.2274324 120.9164750  71.5915726  37.6389165
 120.6582528  72.5132797  37.6373496 120.3849790  71.1946161  38.3289629
 111.6787899  76.7081182  38.4842810 111.1341367  77.4840990  38.6163084
 112.5567248  77.0551987  38.3261931 118.4675515  70.0392766  30.8623608
 118.5891426  69.1109413  31.0614496 118.1777558  70.0531452  29.9501923
 121.3366706  67.7247677  33.9990328 121.3588402  67.7887010  33.0442307
 121.7534765  66.8852185  34.1930834 112.4653920  75.8351079  41.3772966
 111.7235657  75.9833714  41.9637597 112.1446665  76.0959344  40.5139716
 120.4097583  85.3767057  41.1753356 120.7184710  85.1316204  42.0476056
 121.2073065  85.5813695  40.6872227 120.4318195  87.5304967  33.4058733
 119.9923185  87.0381345  34.0991590 121.1826312  86.9877934  33.1650808
 112.9110534  83.7216507  33.4083361 113.7368554  83.4220279  33.0282005
 112.5604586  82.9524130  33.8573150 117.8792067  83.0742976  35.4781035
 117.2572077  82.4113681  35.1783262 118.5496934  83.1004108  34.7954682
 111.1119139  81.6402834  34.3672295 110.2751048  81.2125008  34.1856296
 111.0842785  81.8335277  35.3043086 117.9516595  71.5524764  45.0713541
 118.0004750  72.4286887  44.6891310 118.4939109  71.0102157  44.4985184
 117.4405574  81.6246899  28.9539495 117.5893695  82.3082363  28.3006168
 118.2472018  81.6051989  29.4688951 120.1815883  72.3056136  41.8259899
 119.3119193  72.5989702  41.5542488 120.4175364  72.8896581  42.5467163
 115.1958207  77.6512077  29.9600564 114.9504249  76.7474407  30.1580774
 115.3654122  77.6529227  29.0180042 114.4653855  73.3840434  27.4586726
 113.7723100  73.4584789  26.8026762 114.2205607  72.6200778  27.9808242
 120.9400980  84.1195029  26.4251243 120.3674947  84.7385217  25.9721714
 121.5133773  84.6694391  26.9591165 121.3247778  75.4555842  23.7667295
 122.2706883  75.3262050  23.8355713 120.9462023  74.7170504  24.2436723
 121.2086471  79.5073588  45.2267952 122.1289480  79.6852187  45.4207999
 121.1736054  78.5629634  45.0747651 119.5090695  73.3805819  23.7022180
 118.6022151  73.0838931  23.7784894 119.7866676  73.0835637  22.8356467
 110.4268636  74.7012182  34.1521227 110.1071420  73.8477490  33.8595601
 109.8802064  74.9160760  34.9079194 114.2048543  77.4174623  37.8690733
 114.4234553  78.3491731  37.8878767 114.6174317  77.0582597  38.6545537
 121.1252761  67.9242708  29.8566422 120.3153489  67.5789793  30.2321668
 121.8137178  67.6150252  30.4454033 119.0776409  72.9907829  47.2593482
 118.9773136  73.9402186  47.1905573 118.8597951  72.6626068  46.3869552
 118.2789480  70.2392754  23.8434160 119.1408644  70.5647652  24.1029977
 118.4639824  69.4524250  23.3307225 110.2956896  78.3215094  36.1214348
 109.6020367  77.9069046  35.6084303 111.0429887  78.3635630  35.5247767
 118.9407679  76.4204968  46.0758544 118.4574760  77.2205328  46.2822433
 119.0268618  76.4312912  45.1225988 112.2093638  78.2533347  33.9980363
 112.1864326  78.3521035  33.0462246 112.5194275  79.0998498  34.3197529
 114.8681016  80.3109502  38.1126978 115.8224270  80.2793445  38.0456909
 114.6693540  79.8500126  38.9277204 115.4580398  78.8810618  40.6797775
 116.2773287  79.3754697  40.7032613 115.7317206  77.9642587  40.6515343
 113.2231245  85.8529122  35.1297175 113.0885713  85.0929523  34.5635174
 112.8063307  86.5770022  34.6625964 116.3800371  86.7498439  35.3415618
 116.2632755  87.6943871  35.2394308 115.5592817  86.4472000  35.7301417
 110.7115313  73.2148752  41.3789972 111.3574176  72.7047706  41.8677198
 110.5032464  73.9517434  41.9533398 119.2318923  67.4788797  27.1313869
 119.2197593  68.4230637  27.2882139 120.1242345  67.2958942  26.8373330
 117.4054885  87.4026701  38.5571547 118.3082132  87.4350311  38.8738042
 117.1792255  86.4727152  38.5717882 119.1608487  86.1557687  35.2181625
 118.2104118  86.1559549  35.1045997 119.4640973  85.4090422  34.7017660
 115.0512804  70.3616369  45.4764987 115.9144265  70.0053174  45.6868311
 114.4778214  70.0230264  46.1640391 121.9096237  89.3878607  37.4650622
 122.1604275  90.2725617  37.7308198 122.4455785  89.2083208  36.6925714
 119.1231281  92.5610509  33.9946577 119.8102321  92.2472239  33.4067593
 118.9679410  93.4651874  33.7213829 118.6999257  90.6411102  36.2664044
 118.7383357  90.1074693  37.0601163 118.1939550  90.1146308  35.6475022
 121.9512894  96.9694752  34.3672295 121.1144802  96.5416926  34.1856296
 121.9236539  97.1627195  35.3043086 121.2662390  90.0304100  34.1521227
 120.9465175  89.1769408  33.8595601 120.7195818  90.2452678  34.9079194
 121.1350650  93.6507011  36.1214348 120.4414122  93.2360964  35.6084303
 121.8823641  93.6927548  35.5247767 121.5509067  88.5440670  41.3789972
 122.1967931  88.0339624  41.8677198 121.3426218  89.2809352  41.9533398
  74.6519825   2.6925887  17.8120370  74.5743854   3.6433712  17.8908850
  74.0481468   2.3471760  18.4695296  72.2906654   5.4411281  21.9568572
  72.5303253   6.0729806  22.6347590  71.4475851   5.0899321  22.2433931
  72.7651487   1.4659284  19.2867350  72.0961862   1.9505411  18.8031390
  72.6264356   1.7128504  20.2010729  76.9056755   3.5003027  25.8850009
  77.4575063   3.6634649  26.6499094  77.2462949   4.0907465  25.2130034
  77.0743178   3.2199418  20.1304040  76.6348169   2.7275797  20.8236896
  77.8251295   2.6772386  19.8896115  69.8656228   1.5423574  21.8542482
  69.7310696   0.7823975  21.2880480  69.4488291   2.2664474  21.3871271
  73.0225354   2.4392891  22.0660925  72.9057738   3.3838323  21.9639615
  72.2017800   2.1366452  22.4546724  74.0479868   3.0921153  25.2816853
  74.9507115   3.1244763  25.5983348  73.8217238   2.1621604  25.2963189
  88.3475870   7.6340106  22.9434219  88.0094382   7.5181170  22.0554754
  89.2165638   7.2331271  22.9235225  84.2062686   9.4875582  18.9331110
  83.6427551   9.3965519  18.1647398  84.0915081   8.6675487  19.4133602
  88.8295653   8.7874957  28.9020424  88.8184294   8.3927756  28.0300928
  88.9916293   8.0541030  29.4954196  81.7527118  10.9826774  21.7715330
  82.5448410  10.6417598  21.3561630  81.9923768  11.0921749  22.6917484
  89.7862244  13.1546550  14.2445575  89.1350224  13.7400630  13.8579589
  90.5806607  13.6852745  14.3040612  83.7117872  10.2435687  14.6432709
  84.4848748   9.6964674  14.5045585  84.0643271  11.1079936  14.8547170
  85.5502914  11.5712069  27.8499608  85.2592780  12.4757700  27.7346275
  86.1859899  11.6128597  28.5643678  86.4759121   8.9488918  24.4400968
  87.0722693   8.7244940  23.7257931  86.5334093   8.2073663  25.0426416
  85.7680438   8.3056459  14.4775534  85.6516696   7.6301362  15.1456618
  85.8782698   7.8188833  13.6607687  88.1111979   7.7666606  18.1822223
  87.7470186   7.2397227  18.8935145  88.9679095   7.3765075  18.0088709
  90.5092799  11.2573485  24.8449402  90.2093522  12.1598524  24.7365209
  90.1643859  10.9905668  25.6970555  83.9605281   7.7087282  20.8786107
  83.0355777   7.5763496  21.0863798  84.2089694   8.4881501  21.3756049
  81.3214092   7.3520555  21.7129896  81.4506473   7.6055034  22.6269307
  80.6411543   7.9448263  21.3934551  85.4913579  18.0217805  17.8120370
  85.4137609  18.9725630  17.8908850  84.8875223  17.6763678  18.4695296
  86.2377181   8.0031124  30.0299704  86.9791866   8.5416168  29.7534527
  85.5314167   8.6297413  30.1871255  91.7132521  10.1460264  28.6271865
  92.1215877   9.7042675  27.8826498  90.9909782   9.5712892  28.8806058
  92.0361335  10.7061455  22.3824154  91.4070198  10.8707169  21.6800222
  91.6486998  11.1203064  23.1535118  95.9150567  11.6415893  19.7368518
  95.2301605  12.0214794  19.1865551  95.9994417  12.2511219  20.4700466
  93.1701499   9.2875852  26.3363861  93.3818394   9.9307612  25.6598242
  93.1231247   8.4538168  25.8685791  87.5889297  10.4435863  19.6474239
  88.0527643  10.7223566  18.8578862  87.3246095   9.5419308  19.4647330
  84.4813378   9.9907345  22.5854002  85.0514735  10.4194613  21.9471487
  85.0721490   9.7089929  23.2838188  86.5258183   6.5659015  16.4563804
  87.2282227   7.0180059  16.9237731  86.1938812   5.9242834  17.0843697
  84.9738545   5.1570772  30.8315014  84.3437205   5.8387053  31.0650410
  84.8674633   5.0453854  29.8868152  80.2683517   4.8242568  21.7580938
  79.4782571   5.0800097  21.2821048  80.7594765   5.6390906  21.8632978
  94.2847327  12.1647807  24.5086219  95.1064771  11.7627995  24.2268900
  94.2809730  12.0616041  25.4602334  82.2198263   5.1887147  18.7164415
  81.4229426   5.3005842  19.2347910  81.9923855   5.5273800  17.8505305
  88.0503930  11.7131851  26.6646929  88.1148363  12.1752258  27.5005101
  87.3414854  11.0829215  26.7929239  78.5521220   5.0773058  24.1895929
  78.8029259   5.9620068  24.4553505  79.0880769   4.8977660  23.4171020
  87.7651948  13.3799958  16.5325909  87.6297623  14.2251494  16.9610757
  88.3061761  13.5819236  15.7691843  81.2181345  10.8975396  17.1053835
  81.7305866  11.6918646  17.2559399  81.8704058  10.2001687  17.0387436
  83.0276230  14.0141152  19.1876588  83.2042858  14.9359117  18.9997572
  83.8233064  13.6999572  19.6170968  82.3128587   6.0605784  29.0638751
  82.1982102   5.1591041  29.3645850  81.4573104   6.3069481  28.7123568
  89.3920424  14.0023525  30.6626252  88.9484279  13.2159903  30.3447156
  90.0537638  14.1902675  29.9970142  84.1507546  15.5319326  25.1886930
  84.7014971  15.4036389  24.4163924  83.3119021  15.8314215  24.8381823
  91.4901662  14.2826324  28.6907653  91.4720138  15.1035205  28.1987922
  92.4121582  14.1580400  28.9157794  87.9474717  11.7970454  29.5331161
  88.4803053  11.0358742  29.3030469  87.4188798  11.5044106  30.2755316
  79.1830262   9.2264050  17.8813405  80.0205484   9.6361059  17.6647113
  79.3608530   8.2863493  17.8513599  89.3127429  10.9256446  17.0449973
  88.7848791  10.1909206  16.7323211  88.8114932  11.7031123  16.7989942
  94.2920275   9.1205467  22.1617020  93.6343950   9.8104728  22.2497148
  95.0960675   9.5101899  22.5051006  90.3648108  17.4534164  12.9681632
  89.6909807  17.7565861  13.5766590  90.7513930  18.2563244  12.6187089
  93.8687530  12.4555841  18.3400104  93.4149857  11.6146751  18.3965294
  93.2381497  13.0917239  18.6774884  92.3120470  14.2932338  19.2749922
  92.6043444  14.8537395  18.5562288  92.8219090  14.5860899  20.0303081
  79.2056433   6.5654766  18.5524139  79.0080833   5.9724126  17.8275205
  78.6503097   6.2606976  19.2700077  87.2754095  15.0712689  20.3643375
  87.2330274  15.2973535  19.4351907  88.1916794  14.8376063  20.5129176
  96.4786845  10.7291719  22.9784605  96.9123352  10.6367008  23.8267659
  97.1918426  10.7049220  22.3404621  85.3919896  11.9475718  20.1605338
  86.1860494  11.4526038  19.9587913  84.6811588  11.4193581  19.7973044
  90.2114740  14.3293813  24.5117706  90.2651762  14.8984750  25.2795422
  89.3429521  14.4995698  24.1471743  81.7002659   6.0918800  16.2365091
  80.7700247   6.0303255  16.4535053  81.7960131   5.5694752  15.4401732
  97.3402395  10.7715420  25.5117490  97.5338285  11.6761230  25.7576765
  97.2403013  10.3122839  26.3456075  92.4017503  10.9222163  31.0858371
  92.2503010  10.6932714  30.1688455  92.3922183  11.8792764  31.0989716
  89.1702840   8.4954075  26.0704637  90.0994900   8.6465235  25.8973605
  88.7493870   8.5838096  25.2153284  87.9691172  12.5204740  23.8403175
  87.8302257  12.1523524  24.7129113  87.1805768  13.0352379  23.6687133
  88.5639324  17.6213836  15.1828712  88.7391079  17.1501879  15.9974334
  87.8772112  18.2479602  15.4109972  89.5196387  11.8986343  21.2292013
  89.1846219  11.8587112  22.1249663  89.0200332  11.2331058  20.7562423
  83.4940631   7.3053973  26.7544594  83.3560429   6.5734211  27.3556133
  84.4045554   7.2162873  26.4728782  86.1222931   7.0173932  26.2428274
  86.8322550   6.3767124  26.2014892  86.0792239   7.2686827  27.1654454
  94.1109710  13.9541285  29.1634853  94.0522256  13.2700505  28.4965436
  94.5129228  14.6960275  28.7115479  83.1300409  20.7703199  21.9568572
  83.3697007  21.4021723  22.6347590  82.2869605  20.4191239  22.2433931
  94.1127117  11.9180869  27.3948833  93.2253896  11.5806791  27.5175231
  94.6825668  11.1863900  27.6317598  75.7656264   8.2504961  20.7191884
  76.4527304   7.9366691  20.1312899  75.6104393   9.1546326  20.4459135
  87.6428271  16.5782321  24.3610076  87.5698442  17.3837293  24.8729380
  87.2005664  16.7774287  23.5358097  87.4318050  15.8154092  17.8712897
  86.6485572  16.3575772  17.9651122  88.1310795  16.3328071  18.2707138
  90.1026954  16.4769156  26.5168234  90.8154926  17.1116620  26.4444136
  89.6116983  16.5733022  25.7008236  91.8244481  10.3820408  18.0885526
  90.8900760  10.5021871  17.9190230  92.0021150   9.4792875  17.8245536
  85.1538868  14.2263599  27.3373805  85.8548327  14.8600082  27.4903199
  84.6833983  14.5678331  26.5769445  89.9147328  16.8167900  19.2654526
  90.0969722  15.9989556  19.7282278  90.7380314  17.0335592  18.8279416
  90.2489493  15.7436085  16.5269574  90.7777259  15.2328539  15.9139736
  90.5117713  15.4278615  17.3915107  89.0027727   7.5228017  31.6492393
  88.3268364   7.4222147  32.3194768  89.8255361   7.3667231  32.1128390
  80.7506586  13.7599954  24.2704908  81.3360023  13.0143642  24.4032812
  80.5531424  14.0703911  25.1541572  83.6045241  16.7951201  19.2867350
  82.9355616  17.2797329  18.8031390  83.4658111  17.0420422  20.2010729
  75.3424241   6.3305554  22.9909351  75.3808340   5.7969145  23.7846469
  74.8364533   5.8040760  22.3720328  87.7450510  18.8294945  25.8850009
  88.2968818  18.9926566  26.6499094  88.0856703  19.4199383  25.2130034
  92.5961384  13.6556202  31.7398663  93.1401288  14.2686161  31.2453618
  92.0148229  14.2135781  32.2565676  78.9732818   5.0569656  16.0663282
  79.2686259   4.1480335  16.0130336  78.0720854   5.0357396  15.7444285
  90.8818897  16.7776920  22.8713691  90.7570036  15.9766660  22.3624636
  91.5397988  17.2723114  22.3827661  92.9453805  14.5785941  24.4993241
  91.9984141  14.4591292  24.4271568  93.2936578  13.6908439  24.5819502
  89.9500239  14.3738657  20.6997593  89.8025201  13.4455364  20.8805163
  90.7753732  14.3958747  20.2154668  93.5534360  15.1967216  21.7862466
  94.4780908  14.9910077  21.6486917  93.3849664  14.9483617  22.6951807
  84.6860974   5.1862208  22.2700455  84.5405555   5.5002511  23.1624737
  84.2086178   5.8047108  21.7171354  93.3429677  15.7152883  17.1424557
  93.5166554  15.1499305  16.3898410  93.8358568  16.5153778  16.9604047
  79.1606636   7.7267552  25.2088116  78.6160104   8.5027360  25.3408390
  80.0385986   8.0738357  25.0507238  79.9472658   6.8537448  28.1018273
  79.2054394   7.0020084  28.6882903  79.6265403   7.1145714  27.2385022
  87.8916321  16.3953427  27.8998663  88.2003447  16.1502573  28.7721363
  88.6891803  16.6000065  27.4117533  87.9136933  18.5491336  20.1304040
  87.4741923  18.0567715  20.8236896  88.6645050  18.0064304  19.8896115
  80.3929272  14.7402877  20.1328668  81.2187292  14.4406649  19.7527311
  80.0423324  13.9710499  20.5818456  85.3610805  14.0929345  22.2026341
  84.7390814  13.4300050  21.9028569  86.0315672  14.1190477  21.5199989
  78.5937877  12.6589203  21.0917601  77.7569785  12.2311378  20.9101603
  78.5661522  12.8521647  22.0288392  95.9190178  13.1152257  31.0759984
  95.1285722  13.0976395  30.5364484  95.6823533  13.6540550  31.8309021
  96.0388053   9.9644723  28.3892713  96.0886058   9.7994730  29.3308236
  95.9301977   9.0971982  27.9990594  84.9224312  12.6433269  15.6784802
  85.0712432  13.3268733  15.0251475  85.7290755  12.6238359  16.1934258
  97.5406250  12.3841664  28.6334734  97.2491058  12.7471645  29.4698195
  96.9278381  11.6708673  28.4548067  82.6776945   8.6698446  16.6845871
  82.4322987   7.7660776  16.8826081  82.8472860   8.6715597  15.7425349
  88.4219718  15.1381399  13.1496549  87.8493685  15.7571586  12.6967021
  88.9952511  15.6880761  13.6836471  91.6416977  15.4218549  14.2805132
  92.5747650  15.3564111  14.4838007  91.5540190  16.2574816  13.8219664
  88.6905209  10.5259958  31.9513259  89.6108218  10.7038557  32.1453305
  88.6554792   9.5816003  31.7992958  77.9087374   5.7198552  20.8766533
  77.5890158   4.8663860  20.5840907  77.3620802   5.9347130  21.6324501
  81.6867281   8.4360993  24.5936040  81.9053291   9.3678100  24.6124074
  82.0993055   8.0768967  25.3790844  77.7775634   9.3401463  22.8459655
  77.0839105   8.9255416  22.3329609  78.5248625   9.3822000  22.2493074
  86.4226416   7.4391337  32.8003850  85.9393498   8.2391697  33.0067739
  86.5087356   7.4499282  31.8471294  79.6912376   9.2719717  20.7225670
  79.6683064   9.3707404  19.7707553  80.0013013  10.1184868  21.0442836
  82.3499754  11.3295872  24.8372284  83.3043008  11.2979814  24.7702216
  82.1512278  10.8686496  25.6522510  82.9399136   9.8996988  27.4043082
  83.7592025  10.3941067  27.4277919  83.2135944   8.9828956  27.3760649
  80.7049983  16.8715491  21.8542482  80.5704451  16.1115892  21.2880480
  80.2882045  17.5956391  21.3871271  83.8619109  17.7684808  22.0660925
  83.7451493  18.7130241  21.9639615  83.0411555  17.4658370  22.4546724
  78.1934050   4.2335122  28.1035279  78.8392914   3.7234076  28.5922504
  77.9851201   4.9703803  28.6778704  90.7187443  11.3015969  33.6027420
  91.5878602  11.4756622  33.2414054  90.2394194  12.1210386  33.4803149
  84.8873623  18.4213070  25.2816853  85.7900869  18.4536681  25.5983348
  84.6610993  17.4913521  25.2963189  86.6427225  17.1744057  21.9426932
  85.6922856  17.1745918  21.8291304  86.9459711  16.4276791  21.4262966
 102.3779918  23.0104595  23.0072694 103.0158328  22.8911343  22.3036034
 102.2600761  23.9585439  23.0660646  99.1869625  22.9632023  22.9434219
  98.8488136  22.8473088  22.0554754 100.0559393  22.5623188  22.9235225
  95.0456440  24.8167500  18.9331110  94.4821305  24.7257437  18.1647398
  94.9308835  23.9967404  19.4133602  99.6689408  24.1166875  28.9020424
  99.6578048  23.7219673  28.0300928  99.8310047  23.3832948  29.4954196
  92.5920872  26.3118691  21.7715330  93.3842164  25.9709516  21.3561630
  92.8317522  26.4213666  22.6917484 100.6255999  28.4838467  14.2445575
  99.9743979  29.0692548  13.8579589 101.4200362  29.0144662  14.3040612
  94.5511626  25.5727605  14.6432709  95.3242502  25.0256592  14.5045585
  94.9037025  26.4371854  14.8547170  96.3896669  26.9003987  27.8499608
  96.0986535  27.8049618  27.7346275  97.0253653  26.9420514  28.5643678
  97.3152876  24.2780835  24.4400968  97.9116448  24.0536858  23.7257931
  97.3727847  23.5365581  25.0426416 101.9321187  20.7356049  20.0825902
 102.7184276  20.3175472  19.7316319 102.1959891  21.6402141  20.2507551
  96.6074193  23.6348377  14.4775534  96.4910451  22.9593280  15.1456618
  96.7176453  23.1480751  13.6607687  98.9505734  23.0958524  18.1822223
  98.5863941  22.5689145  18.8935145  99.8072850  22.7056993  18.0088709
 104.8555034  14.3852856  25.4453489 104.5238359  15.2548267  25.2214704
 104.2600648  14.0689140  26.1247520 101.3486554  26.5865402  24.8449402
 101.0487277  27.4890441  24.7365209 101.0037613  26.3197586  25.6970555
  94.7999035  23.0379199  20.8786107  93.8749532  22.9055413  21.0863798
  95.0483448  23.8173418  21.3756049 104.7483698  19.1047943  22.5246839
 103.8400575  19.0363351  22.2305600 104.6971293  19.5819888  23.3528665
  92.1607846  22.6812473  21.7129896  92.2900227  22.9346952  22.6269307
  91.4805298  23.2740181  21.3934551  96.3307334  33.3509723  17.8120370
  96.2531363  34.3017548  17.8908850  95.7268977  33.0055595  18.4695296
  98.8224563  20.5237588  30.4681737  98.0457897  21.0831508  30.4584601
  99.4615126  21.0094371  30.9896607 106.6145344  17.3064381  24.3024713
 105.9719724  17.5996914  23.6564508 106.1100272  17.1917301  25.1077910
  97.0770936  23.3323042  30.0299704  97.8185620  23.8708085  29.7534527
  96.3707921  23.9589330  30.1871255 102.5526275  25.4752182  28.6271865
 102.9609631  25.0334593  27.8826498 101.8303537  24.9004809  28.8806058
  98.9057345  20.4124789  26.0005422  99.7518541  20.8364202  26.1440071
  98.8455983  19.7558413  26.6943985 102.8755090  26.0353373  22.3824154
 102.2463952  26.1999087  21.6800222 102.4880752  26.4494982  23.1535118
 106.7544322  26.9707810  19.7368518 106.0695360  27.3506712  19.1865551
 106.8388171  27.5803137  20.4700466 102.0556791  18.0729157  27.6586596
 101.8117723  18.8271218  27.1220871 102.3316721  18.4514505  28.4933843
 104.0095253  24.6167769  26.3363861 104.2212149  25.2599529  25.6598242
 103.9625002  23.7830086  25.8685791 101.6121482  17.2285590  23.2400433
 100.7505961  17.5266844  23.5317171 101.6383917  17.4455989  22.3081466
  98.4283052  25.7727781  19.6474239  98.8921397  26.0515484  18.8578862
  98.1639850  24.8711225  19.4647330  95.3207133  25.3199262  22.5854002
  95.8908490  25.7486531  21.9471487  95.9115245  25.0381847  23.2838188
  97.3651938  21.8950933  16.4563804  98.0675981  22.3471977  16.9237731
  97.0332566  21.2534752  17.0843697  95.8132299  20.4862690  30.8315014
  95.1830960  21.1678971  31.0650410  95.7068387  20.3745771  29.8868152
  91.1077272  20.1534486  21.7580938  90.3176326  20.4092014  21.2821048
  91.5988519  20.9682824  21.8632978 105.1241081  27.4939725  24.5086219
 105.9458525  27.0919912  24.2268900 105.1203484  27.3907959  25.4602334
  93.0592017  20.5179065  18.7164415  92.2623180  20.6297759  19.2347910
  92.8317609  20.8565717  17.8505305  98.8897685  27.0423768  26.6646929
  98.9542117  27.5044175  27.5005101  98.1808609  26.4121133  26.7929239
  89.3914975  20.4064976  24.1895929  89.6423013  21.2911986  24.4553505
  89.9274523  20.2269578  23.4171020  98.6045702  28.7091876  16.5325909
  98.4691377  29.5543411  16.9610757  99.1455515  28.9111153  15.7691843
  95.0913042  14.7883456  33.1940265  94.6979988  14.2349654  33.8687909
  95.9079182  15.0994034  33.5846782  92.0575100  26.2267314  17.1053835
  92.5699620  27.0210564  17.2559399  92.7097813  25.5293604  17.0387436
  93.8669985  29.3433070  19.1876588  94.0436613  30.2651035  18.9997572
  94.6626818  29.0291489  19.6170968  98.0081003  16.2041335  30.7860521
  98.7490716  16.8048488  30.7064984  98.2398926  15.4618972  30.2278564
  93.1522341  21.3897702  29.0638751  93.0375856  20.4882959  29.3645850
  92.2966859  21.6361399  28.7123568 100.2314179  29.3315442  30.6626252
  99.7878033  28.5451821  30.3447156 100.8931392  29.5194593  29.9970142
  94.9901300  30.8611244  25.1886930  95.5408725  30.7328307  24.4163924
  94.1512776  31.1606133  24.8381823 102.3295417  29.6118242  28.6907653
 102.3113892  30.4327123  28.1987922 103.2515337  29.4872317  28.9157794
  98.7868471  27.1262372  29.5331161  99.3196808  26.3650660  29.3030469
  98.2582552  26.8336023  30.2755316 101.9538166  12.2322438  25.0624803
 101.6102435  13.1224079  24.9863914 102.3217129  12.0424095  24.1994388
  90.0224017  24.5555968  17.8813405  90.8599239  24.9652976  17.6647113
  90.2002284  23.6155410  17.8513599 101.0334706  14.6027093  23.0274036
 100.5299502  14.5657228  22.2141842 101.3265313  15.5119835  23.0870693
  97.2777592  14.6865822  22.0340218  98.1430589  14.4908631  21.6746107
  97.3455101  14.4576174  22.9609575 100.1521184  26.2548364  17.0449973
  99.6242545  25.5201124  16.7323211  99.6508687  27.0323040  16.7989942
 105.1314030  24.4497385  22.1617020 104.4737704  25.1396646  22.2497148
 105.9354429  24.8393817  22.5051006  94.8839911  16.9168030  19.4056585
  95.4583663  16.6943212  18.6729778  95.4710894  16.9856725  20.1585186
 103.9419489  22.8041757  20.2120961 104.4551370  23.4371749  20.7142671
 104.5920713  22.2042953  19.8464321 101.2041863  32.7826082  12.9681632
 100.5303562  33.0857778  13.5766590 101.5907685  33.5855162  12.6187089
 100.4200319  20.2791213  22.4579302  99.5022881  20.5006160  22.3000990
 100.8360463  20.3537523  21.5991009 104.7081285  27.7847759  18.3400104
 104.2543612  26.9438669  18.3965294 104.0775252  28.4209157  18.6774884
 103.1514224  29.6224255  19.2749922 103.4437198  30.1829313  18.5562288
 103.6612845  29.9152816  20.0303081  90.0450188  21.8946683  18.5524139
  89.8474588  21.3016044  17.8275205  89.4896852  21.5898894  19.2700077
  98.0246911  21.7869790  20.6718732  98.0795521  20.8343626  20.5961208
  97.2138113  21.9429229  21.1560030  95.9639271  20.4046850  18.4309111
  95.1507137  20.7041020  18.8374303  96.4598266  20.0102538  19.1483593
  98.1147849  30.4004606  20.3643375  98.0724028  30.6265453  19.4351907
  99.0310548  30.1667981  20.5129176 101.5613483  20.8688674  27.2624004
 101.9162871  21.0960147  28.1218470 102.2085614  21.2007051  26.6401260
  95.4553346  17.9765205  24.0470346  96.0952725  17.8353964  23.3493309
  94.6230877  17.6899718  23.6708948 107.3180600  26.0583637  22.9784605
 107.7517106  25.9658926  23.8267659 108.0312180  26.0341137  22.3404621
  96.2313650  27.2767636  20.1605338  97.0254249  26.7817956  19.9587913
  95.5205342  26.7485499  19.7973044 101.0508495  29.6585731  24.5117706
 101.1045517  30.2276667  25.2795422 100.1823276  29.8287616  24.1471743
  92.5396414  21.4210717  16.2365091  91.6094002  21.3595173  16.4535053
  92.6353885  20.8986670  15.4401732  92.4581963  17.9465530  18.8243332
  92.7188780  18.8610863  18.7152493  93.2799135  17.4789973  18.9739945
  93.9306888  19.3603287  25.9942157  94.6029941  19.1520649  25.3454806
  93.1036674  19.1625373  25.5547389 108.1796149  26.1007338  25.5117490
 108.3732039  27.0053148  25.7576765 108.0796767  25.6414757  26.3456075
  99.8332460  15.9865228  28.0107818  99.1860375  16.6855178  27.9172294
 100.6033475  16.4201372  28.3784066 103.2411258  26.2514080  31.0858371
 103.0896764  26.0224632  30.1688455 103.2315937  27.2084682  31.0989716
 100.0096594  23.8245993  26.0704637 100.9388654  23.9757153  25.8973605
  99.5887624  23.9130014  25.2153284  98.8084926  27.8496657  23.8403175
  98.6696012  27.4815442  24.7129113  98.0199522  28.3644297  23.6687133
  99.4033078  32.9505754  15.1828712  99.5784834  32.4793797  15.9974334
  98.7165866  33.5771520  15.4109972 100.3590141  27.2278260  21.2292013
 100.0239974  27.1879030  22.1249663  99.8594087  26.5622976  20.7562423
  94.3334385  22.6345890  26.7544594  94.1954183  21.9026129  27.3556133
  95.2439309  22.5454790  26.4728782  96.9616686  22.3465850  26.2428274
  97.6716304  21.7059042  26.2014892  96.9185994  22.5978744  27.1654454
 104.9503464  29.2833203  29.1634853 104.8916011  28.5992423  28.4965436
 105.3522983  30.0252193  28.7115479  95.6745620  19.3331067  28.0623913
  95.1382977  18.8821806  28.7145509  95.0862328  19.4676976  27.3194378
  93.9694163  36.0995117  21.9568572  94.2090762  36.7313641  22.6347590
  93.1263360  35.7483157  22.2433931 104.9520872  27.2472787  27.3948833
 104.0647651  26.9098709  27.5175231 105.5219423  26.5155818  27.6317598
  86.6050019  23.5796879  20.7191884  87.2921059  23.2658609  20.1312899
  86.4498148  24.4838243  20.4459135  91.4084741  18.4687075  25.1476908
  91.3242930  17.8612745  24.4127318  90.5867447  18.9596093  25.1486404
  98.4822025  31.9074239  24.3610076  98.4092197  32.7129211  24.8729380
  98.0399418  32.1066205  23.5358097  98.2711805  31.1446009  17.8712897
  97.4879327  31.6867689  17.9651122  98.9704550  31.6619989  18.2707138
 100.9420709  31.8061073  26.5168234 101.6548681  32.4408538  26.4444136
 100.4510737  31.9024939  25.7008236 102.6638236  25.7112326  18.0885526
 101.7294514  25.8313788  17.9190230 102.8414904  24.8084793  17.8245536
  98.1643424  19.0958022  20.2418787  97.7941211  18.5429062  20.9299693
  98.6602516  18.4916155  19.6893787  95.9932622  29.5555517  27.3373805
  96.6942082  30.1892000  27.4903199  95.5227737  29.8970248  26.5769445
 103.7933908  22.1100124  25.1626356 103.1405358  22.3576032  24.5078808
 104.1714288  21.2964262  24.8288833 100.7541082  32.1459817  19.2654526
 100.9363477  31.3281473  19.7282278 101.5774068  32.3627510  18.8279416
 101.0883248  31.0728002  16.5269574 101.6171014  30.5620457  15.9139736
 101.3511467  30.7570533  17.3915107  99.8421481  22.8519935  31.6492393
  99.1662118  22.7514065  32.3194768 100.6649115  22.6959149  32.1128390
  91.5900340  29.0891872  24.2704908  92.1753777  28.3435560  24.4032812
  91.3925179  29.3995828  25.1541572  94.4438995  32.1243119  19.2867350
  93.7749371  32.6089247  18.8031390  94.3051865  32.3712340  20.2010729
  86.1817995  21.6597472  22.9909351  86.2202095  21.1261063  23.7846469
  85.6758288  21.1332677  22.3720328  98.5844264  34.1586863  25.8850009
  99.1362572  34.3218484  26.6499094  98.9250458  34.7491300  25.2130034
  93.5608757  16.5062012  26.4871893  93.6250084  17.3676843  26.0749291
  93.4975878  15.8936014  25.7544252  93.0361030  18.5785145  30.1344928
  93.6633069  18.1962222  30.7482452  92.1788949  18.3599347  30.5000620
 103.4355138  28.9848120  31.7398663 103.9795042  29.5978078  31.2453618
 102.8541983  29.5427699  32.2565676  89.8126573  20.3861574  16.0663282
  90.1080014  19.4772252  16.0130336  88.9114608  20.3649314  15.7444285
 101.7212651  32.1068838  22.8713691 101.5963791  31.3058578  22.3624636
 102.3791742  32.6015032  22.3827661  93.3420820  18.4617571  22.0490831
  92.6207405  19.0753538  21.9098304  94.1314075  18.9975335  21.9707477
 103.7847560  29.9077858  24.4993241 102.8377895  29.7883209  24.4271568
 104.1330333  29.0200356  24.5819502  96.1447133  15.7971997  28.3231483
  96.6681535  16.0434294  29.0857792  95.9259466  16.6292032  27.9034620
  91.5414414  18.0675672  16.1902608  91.2127120  17.1873051  16.0077714
  91.8953785  18.0123340  17.0778997 100.7893993  29.7030574  20.6997593
 100.6418955  28.7747282  20.8805163 101.6147487  29.7250665  20.2154668
  94.6556237  18.3548642  16.5578085  94.9952310  18.8834563  15.8356694
  95.1028358  18.6929048  17.3336652 104.3928115  30.5259133  21.7862466
 105.3174662  30.3201995  21.6486917 104.2243418  30.2775534  22.6951807
  97.3499678  16.7385692  26.0081153  97.0096499  15.9393505  26.4101833
  96.6438684  17.0387403  25.4357987  98.0016150  13.8235005  24.4608476
  98.8242219  13.3495483  24.3387367  98.2454214  14.6025488  24.9607163
  95.5254729  20.5154125  22.2700455  95.3799309  20.8294428  23.1624737
  95.0479932  21.1339026  21.7171354  97.3851112  17.5056673  22.3181345
  97.3712680  16.6097767  21.9813642  98.1023540  17.5127337  22.9519631
  99.2377242  17.9394014  24.3634472  98.9795020  18.8611084  24.3618802
  98.7062283  17.5424448  25.0534936 104.1823431  31.0444801  17.1424557
 104.3560309  30.4791223  16.3898410 104.6752322  31.8445696  16.9604047
  90.0000391  23.0559470  25.2088116  89.4553859  23.8319278  25.3408390
  90.8779741  23.4030274  25.0507238  96.7888008  16.3871054  17.5868915
  96.9103919  15.4587700  17.7859802  96.4990050  16.4009740  16.6747230
  90.7866413  22.1829366  28.1018273  90.0448149  22.3312001  28.6882903
  90.4659157  22.4437632  27.2385022  98.7310075  31.7245344  27.8998663
  99.0397202  31.4794491  28.7721363  99.5285557  31.9291983  27.4117533
  98.7530687  33.8783254  20.1304040  98.3135678  33.3859633  20.8236896
  99.5038804  33.3356222  19.8896115  91.2323026  30.0694795  20.1328668
  92.0581046  29.7698567  19.7527311  90.8817078  29.3002417  20.5818456
  96.2004560  29.4221263  22.2026341  95.5784569  28.7591968  21.9028569
  96.8709426  29.4482395  21.5199989  89.4331631  27.9881121  21.0917601
  88.5963540  27.5603296  20.9101603  89.4055277  28.1813565  22.0288392
  96.2729087  17.9003051  31.7958847  96.3217243  18.7765174  31.4136617
  96.8151601  17.3580444  31.2230491 106.7583933  28.4444174  31.0759984
 105.9679476  28.4268313  30.5364484 106.5217287  28.9832468  31.8309021
 106.8781808  25.2936641  28.3892713 106.9279813  25.1286648  29.3308236
 106.7695731  24.4263900  27.9990594  95.7618067  27.9725186  15.6784802
  95.9106187  28.6560651  15.0251475  96.5684510  27.9530276  16.1934258
 104.1685570  21.2767569  29.7052020 105.0695433  21.1374033  29.4136017
 104.2433545  21.4422023  30.6450197  98.5028376  18.6534423  28.5505206
  97.6331685  18.9467989  28.2787794  98.7387856  19.2374868  29.2712470
 108.3800005  27.7133582  28.6334734 108.0884813  28.0763563  29.4698195
 107.7672136  27.0000590  28.4548067 106.6287193  22.8366197  27.1014792
 107.1041314  23.0293843  26.2933644 105.7052758  22.8925383  26.8558176
  93.5170699  23.9990364  16.6845871  93.2716741  23.0952694  16.8826081
  93.6866614  24.0007514  15.7425349 101.2067409  14.8714040  26.0670626
 101.7249353  15.6075067  25.7417115 100.8522542  15.1778034  26.9017385
  92.7866347  19.7318721  14.1832032  92.0935592  19.8063076  13.5272068
  92.5418099  18.9679065  14.7053549  99.2613472  30.4673317  13.1496549
  98.6887439  31.0863504  12.6967021  99.8346266  31.0172678  13.6836471
 105.3288862  19.7131957  25.3343098 106.2806285  19.8130054  25.3555322
 105.1592312  18.9210225  25.8441182 103.3503241  16.7987540  25.5202499
 102.7553173  17.0792553  24.8248988 103.0652938  17.2881441  26.2919240
 102.4810732  30.7510467  14.2805132 103.4141405  30.6856029  14.4838007
 102.3933945  31.5866734  13.8219664 107.8076940  22.9338077  24.4485398
 107.7753260  21.9954077  24.6345082 108.4177563  23.0122113  23.7151223
  99.5298963  25.8551876  31.9513259 100.4501973  26.0330475  32.1453305
  99.4948546  24.9107921  31.7992958  88.7481128  21.0490469  20.8766533
  88.4283912  20.1955777  20.5840907  88.2014556  21.2639047  21.6324501
  92.5261036  23.7652910  24.5936040  92.7447045  24.6970018  24.6124074
  92.9386809  23.4060885  25.3790844  97.3988901  19.3386116  33.9838789
  97.2985628  20.2880473  33.9150880  97.1810443  19.0104355  33.1114859
  88.6169388  24.6693381  22.8459655  87.9232859  24.2547334  22.3329609
  89.3642379  24.7113917  22.2493074  97.2620171  22.7683255  32.8003850
  96.7787253  23.5683615  33.0067739  97.3481110  22.7791200  31.8471294
  90.5306131  24.6011635  20.7225670  90.5076819  24.6999322  19.7707553
  90.8406767  25.4476785  21.0442836  93.1893508  26.6587790  24.8372284
  94.1436762  26.6271732  24.7702216  92.9906032  26.1978413  25.6522510
  93.7792891  25.2288906  27.4043082  94.5985780  25.7232984  27.4277919
  94.0529698  24.3120874  27.3760649  91.5443737  32.2007409  21.8542482
  91.4098205  31.4407810  21.2880480  91.1275800  32.9248309  21.3871271
  94.7012863  33.0976726  22.0660925  94.5845247  34.0422159  21.9639615
  93.8805309  32.7950288  22.4546724  89.0327805  19.5627039  28.1035279
  89.6786668  19.0525993  28.5922504  88.8244956  20.2995721  28.6778704
 101.5581197  26.6307887  33.6027420 102.4272357  26.8048539  33.2414054
 101.0787949  27.4502304  33.4803149  95.7267377  33.7504988  25.2816853
  96.6294624  33.7828598  25.5983348  95.5004747  32.8205439  25.2963189
  97.4820979  32.5035975  21.9426932  96.5316610  32.5037836  21.8291304
  97.7853465  31.7568709  21.4262966  93.3725296  16.7094657  32.2010293
  94.2356757  16.3531461  32.4113618  92.7990706  16.3708551  32.8885697
 113.2173673  38.3396513  23.0072694 113.8552083  38.2203260  22.3036034
 113.0994516  39.2877357  23.0660646 110.0263379  38.2923941  22.9434219
 109.6881891  38.1765006  22.0554754 110.8953147  37.8915106  22.9235225
 105.8850195  40.1459417  18.9331110 105.3215060  40.0549354  18.1647398
 105.7702590  39.3259322  19.4133602 110.5083162  39.4458793  28.9020424
 110.4971803  39.0511591  28.0300928 110.6703802  38.7124865  29.4954196
 103.4314627  41.6410609  21.7715330 104.2235919  41.3001434  21.3561630
 103.6711277  41.7505584  22.6917484 111.4649753  43.8130385  14.2445575
 110.8137733  44.3984466  13.8579589 112.2594116  44.3436580  14.3040612
 105.3905381  40.9019522  14.6432709 106.1636257  40.3548509  14.5045585
 105.7430779  41.7663772  14.8547170 107.2290423  42.2295905  27.8499608
 106.9380289  43.1341535  27.7346275 107.8647408  42.2712432  28.5643678
 108.1546630  39.6072753  24.4400968 108.7510202  39.3828775  23.7257931
 108.2121602  38.8657499  25.0426416 112.7714941  36.0647967  20.0825902
 113.5578030  35.6467390  19.7316319 113.0353646  36.9694059  20.2507551
 107.4467947  38.9640294  14.4775534 107.3304205  38.2885198  15.1456618
 107.5570207  38.4772668  13.6607687 109.7899488  38.4250441  18.1822223
 109.4257695  37.8981062  18.8935145 110.6466604  38.0348911  18.0088709
 115.6948789  29.7144774  25.4453489 115.3632114  30.5840185  25.2214704
 115.0994402  29.3981058  26.1247520 112.1880308  41.9157320  24.8449402
 111.8881031  42.8182359  24.7365209 111.8431368  41.6489503  25.6970555
 105.6392790  38.3671117  20.8786107 104.7143286  38.2347331  21.0863798
 105.8877203  39.1465336  21.3756049 115.5877452  34.4339860  22.5246839
 114.6794329  34.3655269  22.2305600 115.5365048  34.9111805  23.3528665
 103.0001601  38.0104390  21.7129896 103.1293982  38.2638869  22.6269307
 102.3199052  38.6032098  21.3934551 107.1701088  48.6801640  17.8120370
 107.0925118  49.6309465  17.8908850 106.5662732  48.3347513  18.4695296
 109.6618318  35.8529506  30.4681737 108.8851652  36.4123426  30.4584601
 110.3008881  36.3386289  30.9896607 117.4539098  32.6356299  24.3024713
 116.8113479  32.9288832  23.6564508 116.9494027  32.5209219  25.1077910
 107.9164690  38.6614959  30.0299704 108.6579375  39.2000003  29.7534527
 107.2101676  39.2881248  30.1871255 113.3920030  40.8044100  28.6271865
 113.8003386  40.3626510  27.8826498 112.6697291  40.2296727  28.8806058
 109.7451100  35.7416706  26.0005422 110.5912295  36.1656120  26.1440071
 109.6849737  35.0850331  26.6943985 113.7148844  41.3645290  22.3824154
 113.0857707  41.5291004  21.6800222 113.3274507  41.7786900  23.1535118
 117.5938076  42.2999728  19.7368518 116.9089114  42.6798629  19.1865551
 117.6781926  42.9095055  20.4700466 112.8950545  33.4021075  27.6586596
 112.6511477  34.1563135  27.1220871 113.1710476  33.7806422  28.4933843
 114.8489008  39.9459687  26.3363861 115.0605903  40.5891447  25.6598242
 114.8018756  39.1122004  25.8685791 112.4515237  32.5577508  23.2400433
 111.5899716  32.8558761  23.5317171 112.4777672  32.7747907  22.3081466
 109.2676806  41.1019698  19.6474239 109.7315152  41.3807401  18.8578862
 109.0033604  40.2003143  19.4647330 106.1600887  40.6491180  22.5854002
 106.7302244  41.0778448  21.9471487 106.7508999  40.3673765  23.2838188
 108.2045692  37.2242851  16.4563804 108.9069736  37.6763894  16.9237731
 107.8726321  36.5826670  17.0843697 106.6526054  35.8154607  30.8315014
 106.0224714  36.4970888  31.0650410 106.5462142  35.7037689  29.8868152
 101.9471026  35.4826403  21.7580938 101.1570080  35.7383932  21.2821048
 102.4382274  36.2974741  21.8632978 115.9634836  42.8231643  24.5086219
 116.7852280  42.4211830  24.2268900 115.9597239  42.7199877  25.4602334
 103.8985772  35.8470983  18.7164415 103.1016935  35.9589677  19.2347910
 103.6711364  36.1857635  17.8505305 109.7291439  42.3715686  26.6646929
 109.7935872  42.8336093  27.5005101 109.0202363  41.7413051  26.7929239
 100.2308729  35.7356894  24.1895929 100.4816768  36.6203904  24.4553505
 100.7668278  35.5561495  23.4171020 109.4439457  44.0383793  16.5325909
 109.3085132  44.8835329  16.9610757 109.9849269  44.2403071  15.7691843
 105.9306797  30.1175373  33.1940265 105.5373742  29.5641572  33.8687909
 106.7472937  30.4285952  33.5846782 102.8968854  41.5559231  17.1053835
 103.4093375  42.3502482  17.2559399 103.5491567  40.8585522  17.0387436
 104.7063739  44.6724988  19.1876588 104.8830367  45.5942952  18.9997572
 105.5020573  44.3583407  19.6170968 108.8474758  31.5333252  30.7860521
 109.5884471  32.1340405  30.7064984 109.0792680  30.7910890  30.2278564
 103.9916096  36.7189620  29.0638751 103.8769611  35.8174877  29.3645850
 103.1360613  36.9653316  28.7123568 111.0707933  44.6607360  30.6626252
 110.6271788  43.8743738  30.3447156 111.7325147  44.8486510  29.9970142
 105.8295055  46.1903161  25.1886930 106.3802480  46.0620225  24.4163924
 104.9906530  46.4898050  24.8381823 113.1689171  44.9410160  28.6907653
 113.1507647  45.7619041  28.1987922 114.0909091  44.8164235  28.9157794
 109.6262226  42.4554289  29.5331161 110.1590562  41.6942577  29.3030469
 109.0976307  42.1627941  30.2755316 112.7931921  27.5614355  25.0624803
 112.4496190  28.4515997  24.9863914 113.1610883  27.3716013  24.1994388
 100.8617771  39.8847886  17.8813405 101.6992993  40.2944894  17.6647113
 101.0396039  38.9447328  17.8513599 111.8728461  29.9319010  23.0274036
 111.3693257  29.8949146  22.2141842 112.1659068  30.8411753  23.0870693
 108.1171347  30.0157740  22.0340218 108.9824344  29.8200549  21.6746107
 108.1848856  29.7868092  22.9609575 110.9914938  41.5840282  17.0449973
 110.4636300  40.8493041  16.7323211 110.4902441  42.3614958  16.7989942
 115.9707784  39.7789302  22.1617020 115.3131459  40.4688564  22.2497148
 116.7748184  40.1685734  22.5051006 105.7233666  32.2459948  19.4056585
 106.2977418  32.0235130  18.6729778 106.3104648  32.3148643  20.1585186
 114.7813243  38.1333675  20.2120961 115.2945125  38.7663667  20.7142671
 115.4314467  37.5334870  19.8464321 112.0435617  48.1117999  12.9681632
 111.3697316  48.4149696  13.5766590 112.4301439  48.9147080  12.6187089
 111.2594074  35.6083130  22.4579302 110.3416635  35.8298077  22.3000990
 111.6754218  35.6829441  21.5991009 115.5475039  43.1139676  18.3400104
 115.0937366  42.2730586  18.3965294 114.9169006  43.7501075  18.6774884
 113.9907979  44.9516173  19.2749922 114.2830953  45.5121230  18.5562288
 114.5006599  45.2444734  20.0303081 100.8843942  37.2238601  18.5524139
 100.6868342  36.6307962  17.8275205 100.3290606  36.9190811  19.2700077
 108.8640666  37.1161707  20.6718732 108.9189276  36.1635544  20.5961208
 108.0531868  37.2721147  21.1560030 106.8033026  35.7338767  18.4309111
 105.9900891  36.0332938  18.8374303 107.2992020  35.3394456  19.1483593
 108.9541604  45.7296524  20.3643375 108.9117783  45.9557370  19.4351907
 109.8704303  45.4959899  20.5129176 112.4007238  36.1980592  27.2624004
 112.7556625  36.4252065  28.1218470 113.0479369  36.5298969  26.6401260
 106.2947101  33.3057123  24.0470346 106.9346480  33.1645882  23.3493309
 105.4624631  33.0191636  23.6708948 118.1574354  41.3875555  22.9784605
 118.5910861  41.2950844  23.8267659 118.8705935  41.3633055  22.3404621
 107.0707405  42.6059553  20.1605338 107.8648003  42.1109873  19.9587913
 106.3599097  42.0777416  19.7973044 111.8902249  44.9877649  24.5117706
 111.9439271  45.5568585  25.2795422 111.0217030  45.1579534  24.1471743
 103.3790168  36.7502635  16.2365091 102.4487756  36.6887090  16.4535053
 103.4747640  36.2278588  15.4401732 103.2975717  33.2757448  18.8243332
 103.5582534  34.1902781  18.7152493 104.1192889  32.8081890  18.9739945
 104.7700642  34.6895205  25.9942157 105.4423696  34.4812567  25.3454806
 103.9430429  34.4917291  25.5547389 119.0189904  41.4299255  25.5117490
 119.2125794  42.3345066  25.7576765 118.9190522  40.9706674  26.3456075
 110.6726214  31.3157146  28.0107818 110.0254129  32.0147096  27.9172294
 111.4427230  31.7493290  28.3784066 114.0805012  41.5805998  31.0858371
 113.9290519  41.3516550  30.1688455 114.0709692  42.5376599  31.0989716
 110.8490349  39.1537911  26.0704637 111.7782409  39.3049070  25.8973605
 110.4281379  39.2421932  25.2153284 109.6478681  43.1788575  23.8403175
 109.5089766  42.8107360  24.7129113 108.8593277  43.6936215  23.6687133
 110.2426832  48.2797672  15.1828712 110.4178588  47.8085715  15.9974334
 109.5559621  48.9063438  15.4109972 111.1983896  42.5570178  21.2292013
 110.8633728  42.5170948  22.1249663 110.6987841  41.8914894  20.7562423
 105.1728140  37.9637808  26.7544594 105.0347938  37.2318047  27.3556133
 106.0833063  37.8746708  26.4728782 107.8010440  37.6757767  26.2428274
 108.5110059  37.0350959  26.2014892 107.7579748  37.9270662  27.1654454
 115.7897219  44.6125121  29.1634853 115.7309765  43.9284341  28.4965436
 116.1916737  45.3544111  28.7115479 106.5139374  34.6622985  28.0623913
 105.9776731  34.2113724  28.7145509 105.9256083  34.7968894  27.3194378
 104.8087918  51.4287034  21.9568572 105.0484516  52.0605559  22.6347590
 103.9657114  51.0775074  22.2433931 115.7914626  42.5764705  27.3948833
 114.9041405  42.2390626  27.5175231 116.3613177  41.8447736  27.6317598
  97.4443773  38.9088796  20.7191884  98.1314813  38.5950526  20.1312899
  97.2891902  39.8130161  20.4459135 102.2478496  33.7978993  25.1476908
 102.1636684  33.1904662  24.4127318 101.4261202  34.2888011  25.1486404
 109.3215780  47.2366157  24.3610076 109.2485951  48.0421128  24.8729380
 108.8793173  47.4358123  23.5358097 109.1105559  46.4737927  17.8712897
 108.3273081  47.0159607  17.9651122 109.8098304  46.9911907  18.2707138
 111.7814463  47.1352991  26.5168234 112.4942435  47.7700456  26.4444136
 111.2904492  47.2316857  25.7008236 113.5031990  41.0404244  18.0885526
 112.5688269  41.1605706  17.9190230 113.6808659  40.1376710  17.8245536
 109.0037178  34.4249939  20.2418787 108.6334966  33.8720980  20.9299693
 109.4996271  33.8208073  19.6893787 106.8326377  44.8847434  27.3373805
 107.5335836  45.5183917  27.4903199 106.3621492  45.2262166  26.5769445
 114.6327663  37.4392042  25.1626356 113.9799113  37.6867949  24.5078808
 115.0108043  36.6256180  24.8288833 111.5934837  47.4751735  19.2654526
 111.7757231  46.6573391  19.7282278 112.4167823  47.6919427  18.8279416
 111.9277002  46.4019920  16.5269574 112.4564768  45.8912375  15.9139736
 112.1905222  46.0862450  17.3915107 110.6815236  38.1811853  31.6492393
 110.0055873  38.0805982  32.3194768 111.5042870  38.0251067  32.1128390
 102.4294095  44.4183789  24.2704908 103.0147532  43.6727477  24.4032812
 102.2318933  44.7287746  25.1541572 105.2832750  47.4535037  19.2867350
 104.6143125  47.9381164  18.8031390 105.1445620  47.7004257  20.2010729
  97.0211749  36.9889390  22.9909351  97.0595849  36.4552980  23.7846469
  96.5152042  36.4624595  22.3720328 109.4238019  49.4878780  25.8850009
 109.9756327  49.6510402  26.6499094 109.7644212  50.0783218  25.2130034
 104.4002512  31.8353930  26.4871893 104.4643838  32.6968761  26.0749291
 104.3369632  31.2227932  25.7544252 103.8754784  33.9077063  30.1344928
 104.5026823  33.5254140  30.7482452 103.0182703  33.6891265  30.5000620
 114.2748893  44.3140038  31.7398663 114.8188797  44.9269996  31.2453618
 113.6935738  44.8719616  32.2565676 100.6520327  35.7153492  16.0663282
 100.9473768  34.8064170  16.0130336  99.7508363  35.6941231  15.7444285
 112.5606406  47.4360756  22.8713691 112.4357545  46.6350496  22.3624636
 113.2185497  47.9306949  22.3827661 104.1814574  33.7909488  22.0490831
 103.4601160  34.4045456  21.9098304 104.9707830  34.3267253  21.9707477
 114.6241314  45.2369776  24.4993241 113.6771650  45.1175127  24.4271568
 114.9724087  44.3492274  24.5819502 106.9840888  31.1263915  28.3231483
 107.5075289  31.3726211  29.0857792 106.7653221  31.9583950  27.9034620
 102.3808169  33.3967589  16.1902608 102.0520875  32.5164968  16.0077714
 102.7347539  33.3415258  17.0778997 111.6287748  45.0322492  20.6997593
 111.4812710  44.1039200  20.8805163 112.4541241  45.0542583  20.2154668
 105.4949992  33.6840559  16.5578085 105.8346064  34.2126480  15.8356694
 105.9422112  34.0220965  17.3336652 115.2321869  45.8551051  21.7862466
 116.1568417  45.6493912  21.6486917 115.0637173  45.6067452  22.6951807
 108.1893433  32.0677610  26.0081153 107.8490253  31.2685423  26.4101833
 107.4832439  32.3679321  25.4357987 108.8409904  29.1526922  24.4608476
 109.6635974  28.6787401  24.3387367 109.0847968  29.9317406  24.9607163
 106.3648483  35.8446043  22.2700455 106.2193064  36.1586346  23.1624737
 105.8873687  36.4630943  21.7171354 108.2244866  32.8348591  22.3181345
 108.2106435  31.9389684  21.9813642 108.9417294  32.8419255  22.9519631
 110.0770997  33.2685931  24.3634472 109.8188775  34.1903002  24.3618802
 109.5456037  32.8716366  25.0534936 115.0217186  46.3736718  17.1424557
 115.1954063  45.8083141  16.3898410 115.5146077  47.1737613  16.9604047
 100.8394145  38.3851387  25.2088116 100.2947613  39.1611195  25.3408390
 101.7173495  38.7322192  25.0507238 107.6281762  31.7162971  17.5868915
 107.7497673  30.7879617  17.7859802 107.3383804  31.7301657  16.6747230
 101.6260167  37.5121284  28.1018273 100.8841903  37.6603919  28.6882903
 101.3052912  37.7729549  27.2385022 109.5703830  47.0537262  27.8998663
 109.8790956  46.8086409  28.7721363 110.3679312  47.2583900  27.4117533
 109.5924442  49.2075172  20.1304040 109.1529432  48.7151550  20.8236896
 110.3432559  48.6648139  19.8896115 102.0716781  45.3986712  20.1328668
 102.8974801  45.0990484  19.7527311 101.7210833  44.6294335  20.5818456
 107.0398314  44.7513181  22.2026341 106.4178323  44.0883886  21.9028569
 107.7103181  44.7774313  21.5199989 100.2725386  43.3173039  21.0917601
  99.4357294  42.8895213  20.9101603 100.2449031  43.5105482  22.0288392
 107.1122842  33.2294969  31.7958847 107.1610997  34.1057091  31.4136617
 107.6545356  32.6872362  31.2230491 117.5977687  43.7736092  31.0759984
 116.8073231  43.7560231  30.5364484 117.3611042  44.3124386  31.8309021
 117.7175562  40.6228558  28.3892713 117.7673567  40.4578566  29.3308236
 117.6089486  39.7555817  27.9990594 106.6011821  43.3017104  15.6784802
 106.7499941  43.9852568  15.0251475 107.4078264  43.2822194  16.1934258
 115.0079325  36.6059486  29.7052020 115.9089187  36.4665951  29.4136017
 115.0827299  36.7713941  30.6450197 109.3422130  33.9826341  28.5505206
 108.4725439  34.2759907  28.2787794 109.5781610  34.5666786  29.2712470
 119.2193759  43.0425500  28.6334734 118.9278567  43.4055480  29.4698195
 118.6065890  42.3292508  28.4548067 117.4680947  38.1658114  27.1014792
 117.9435069  38.3585761  26.2933644 116.5446513  38.2217300  26.8558176
 104.3564454  39.3282282  16.6845871 104.1110496  38.4244612  16.8826081
 104.5260369  39.3299432  15.7425349 112.0461164  30.2005958  26.0670626
 112.5643108  30.9366985  25.7417115 111.6916297  30.5069951  26.9017385
 103.6260102  35.0610639  14.1832032 102.9329346  35.1354994  13.5272068
 103.3811853  34.2970983  14.7053549 110.1007227  45.7965234  13.1496549
 109.5281194  46.4155422  12.6967021 110.6740020  46.3464596  13.6836471
 116.1682616  35.0423874  25.3343098 117.1200039  35.1421972  25.3555322
 115.9986067  34.2502143  25.8441182 114.1896996  32.1279458  25.5202499
 113.5946928  32.4084470  24.8248988 113.9046693  32.6173359  26.2919240
 113.3204486  46.0802385  14.2805132 114.2535159  46.0147946  14.4838007
 113.2327699  46.9158651  13.8219664 118.6470694  38.2629994  24.4485398
 118.6147014  37.3245995  24.6345082 119.2571318  38.3414031  23.7151223
 110.3692718  41.1843793  31.9513259 111.2895727  41.3622392  32.1453305
 110.3342301  40.2399839  31.7992958  99.5874883  36.3782387  20.8766533
  99.2677667  35.5247695  20.5840907  99.0408311  36.5930965  21.6324501
 103.3654790  39.0944828  24.5936040 103.5840800  40.0261936  24.6124074
 103.7780564  38.7352802  25.3790844 108.2382655  34.6678034  33.9838789
 108.1379382  35.6172391  33.9150880 108.0204197  34.3396273  33.1114859
  99.4563143  39.9985298  22.8459655  98.7626614  39.5839251  22.3329609
 100.2036134  40.0405835  22.2493074 108.1013925  38.0975173  32.8003850
 107.6181007  38.8975533  33.0067739 108.1874865  38.1083117  31.8471294
 101.3699885  39.9303552  20.7225670 101.3470573  40.0291239  19.7707553
 101.6800522  40.7768703  21.0442836 104.0287263  41.9879707  24.8372284
 104.9830517  41.9563650  24.7702216 103.8299787  41.5270331  25.6522510
 104.6186645  40.5580823  27.4043082 105.4379534  41.0524902  27.4277919
 104.8923453  39.6412791  27.3760649 102.3837492  47.5299327  21.8542482
 102.2491960  46.7699728  21.2880480 101.9669554  48.2540227  21.3871271
 105.5406618  48.4268644  22.0660925 105.4239002  49.3714076  21.9639615
 104.7199064  48.1242205  22.4546724  99.8721559  34.8918957  28.1035279
 100.5180423  34.3817911  28.5922504  99.6638710  35.6287639  28.6778704
 112.3974952  41.9599805  33.6027420 113.2666111  42.1340457  33.2414054
 111.9181703  42.7794221  33.4803149 106.5661132  49.0796906  25.2816853
 107.4688378  49.1120516  25.5983348 106.3398502  48.1497357  25.2963189
 108.3214734  47.8327892  21.9426932 107.3710365  47.8329754  21.8291304
 108.6247220  47.0860627  21.4262966 104.2119050  32.0386574  32.2010293
 105.0750512  31.6823379  32.4113618 103.6384461  31.7000469  32.8885697
 120.8657134  53.6215859  22.9434219 120.5275645  53.5056923  22.0554754
 121.7346902  53.2207024  22.9235225 116.7243949  55.4751335  18.9331110
 116.1608814  55.3841272  18.1647398 116.6096344  54.6551240  19.4133602
 121.3476917  54.7750710  28.9020424 121.3365557  54.3803509  28.0300928
 121.5097556  54.0416783  29.4954196 114.2708381  56.9702527  21.7715330
 115.0629673  56.6293351  21.3561630 114.5105031  57.0797502  22.6917484
 116.2299135  56.2311440  14.6432709 117.0030011  55.6840427  14.5045585
 116.5824534  57.0955689  14.8547170 118.0684178  57.5587822  27.8499608
 117.7774044  58.4633453  27.7346275 118.7041162  57.6004350  28.5643678
 118.9940385  54.9364671  24.4400968 119.5903957  54.7120693  23.7257931
 119.0515356  54.1949416  25.0426416 118.2861702  54.2932212  14.4775534
 118.1697960  53.6177115  15.1456618 118.3963962  53.8064586  13.6607687
 120.6293243  53.7542359  18.1822223 120.2651450  53.2272980  18.8935145
 121.4860359  53.3640828  18.0088709 116.4786544  53.6963035  20.8786107
 115.5537041  53.5639249  21.0863798 116.7270957  54.4757254  21.3756049
 113.8395355  53.3396308  21.7129896 113.9687736  53.5930787  22.6269307
 113.1592807  53.9324016  21.3934551 118.0094843  64.0093558  17.8120370
 117.9318872  64.9601383  17.8908850 117.4056486  63.6639431  18.4695296
 120.5012072  51.1821424  30.4681737 119.7245406  51.7415344  30.4584601
 121.1402635  51.6678206  30.9896607 118.7558445  53.9906877  30.0299704
 119.4973129  54.5291921  29.7534527 118.0495430  54.6173166  30.1871255
 120.5844854  51.0708624  26.0005422 121.4306050  51.4948038  26.1440071
 120.5243492  50.4142248  26.6943985 120.1070561  56.4311616  19.6474239
 120.5708906  56.7099319  18.8578862 119.8427359  55.5295061  19.4647330
 116.9994642  55.9783098  22.5854002 117.5695999  56.4070366  21.9471487
 117.5902754  55.6965682  23.2838188 119.0439447  52.5534768  16.4563804
 119.7463490  53.0055812  16.9237731 118.7120075  51.9118587  17.0843697
 117.4919808  51.1446525  30.8315014 116.8618469  51.8262806  31.0650410
 117.3855896  51.0329607  29.8868152 112.7864781  50.8118321  21.7580938
 111.9963835  51.0675850  21.2821048 113.2776028  51.6266659  21.8632978
 114.7379526  51.1762900  18.7164415 113.9410689  51.2881595  19.2347910
 114.5105118  51.5149553  17.8505305 120.5685194  57.7007604  26.6646929
 120.6329626  58.1628011  27.5005101 119.8596118  57.0704968  26.7929239
 111.0702484  51.0648812  24.1895929 111.3210522  51.9495821  24.4553505
 111.6062032  50.8853413  23.4171020 120.2833211  59.3675711  16.5325909
 120.1478886  60.2127247  16.9610757 120.8243024  59.5694989  15.7691843
 116.7700551  45.4467291  33.1940265 116.3767497  44.8933489  33.8687909
 117.5866691  45.7577869  33.5846782 113.7362609  56.8851149  17.1053835
 114.2487129  57.6794399  17.2559399 114.3885322  56.1877440  17.0387436
 115.5457494  60.0016905  19.1876588 115.7224122  60.9234870  18.9997572
 116.3414327  59.6875325  19.6170968 119.6868512  46.8625170  30.7860521
 120.4278225  47.4632323  30.7064984 119.9186435  46.1202808  30.2278564
 114.8309850  52.0481537  29.0638751 114.7163365  51.1466794  29.3645850
 113.9754368  52.2945234  28.7123568 116.6688809  61.5195079  25.1886930
 117.2196234  61.3912143  24.4163924 115.8300285  61.8189968  24.8381823
 120.4655980  57.7846207  29.5331161 120.9984317  57.0234495  29.3030469
 119.9370061  57.4919859  30.2755316 111.7011526  55.2139803  17.8813405
 112.5386748  55.6236812  17.6647113 111.8789793  54.2739246  17.8513599
 118.9565101  45.3449658  22.0340218 119.8218098  45.1492466  21.6746107
 119.0242610  45.1160010  22.9609575 121.8308693  56.9132199  17.0449973
 121.3030054  56.1784959  16.7323211 121.3296196  57.6906876  16.7989942
 116.5627420  47.5751866  19.4056585 117.1371172  47.3527047  18.6729778
 117.1498403  47.6440560  20.1585186 111.7237697  52.5530519  18.5524139
 111.5262097  51.9599879  17.8275205 111.1684361  52.2482729  19.2700077
 119.7034420  52.4453625  20.6718732 119.7583030  51.4927462  20.5961208
 118.8925622  52.6013064  21.1560030 117.6426780  51.0630685  18.4309111
 116.8294646  51.3624855  18.8374303 118.1385775  50.6686374  19.1483593
 119.7935358  61.0588442  20.3643375 119.7511537  61.2849288  19.4351907
 120.7098057  60.8251816  20.5129176 117.1340855  48.6349040  24.0470346
 117.7740234  48.4937800  23.3493309 116.3018386  48.3483554  23.6708948
 117.9101159  57.9351471  20.1605338 118.7041758  57.4401791  19.9587913
 117.1992851  57.4069334  19.7973044 114.2183922  52.0794553  16.2365091
 113.2881511  52.0179008  16.4535053 114.3141394  51.5570505  15.4401732
 114.1369472  48.6049365  18.8243332 114.3976289  49.5194699  18.7152493
 114.9586644  48.1373808  18.9739945 115.6094397  50.0187123  25.9942157
 116.2817450  49.8104485  25.3454806 114.7824183  49.8209209  25.5547389
 121.5119969  46.6449064  28.0107818 120.8647884  47.3439013  27.9172294
 122.2820984  47.0785207  28.3784066 120.4872435  58.5080493  23.8403175
 120.3483521  58.1399277  24.7129113 119.6987031  59.0228132  23.6687133
 121.0820587  63.6089589  15.1828712 121.2572343  63.1377633  15.9974334
 120.3953375  64.2355356  15.4109972 122.0377650  57.8862096  21.2292013
 121.7027483  57.8462866  22.1249663 121.5381596  57.2206811  20.7562423
 116.0121894  53.2929726  26.7544594 115.8741692  52.5609964  27.3556133
 116.9226818  53.2038626  26.4728782 118.6404195  53.0049685  26.2428274
 119.3503813  52.3642877  26.2014892 118.5973503  53.2562580  27.1654454
 117.3533129  49.9914903  28.0623913 116.8170486  49.5405641  28.7145509
 116.7649837  50.1260812  27.3194378 115.6481672  66.7578952  21.9568572
 115.8878270  67.3897476  22.6347590 114.8050869  66.4066992  22.2433931
 108.2837528  54.2380714  20.7191884 108.9708568  53.9242444  20.1312899
 108.1285657  55.1422079  20.4459135 113.0872250  49.1270910  25.1476908
 113.0030439  48.5196580  24.4127318 112.2654956  49.6179929  25.1486404
 120.1609534  62.5658075  24.3610076 120.0879706  63.3713046  24.8729380
 119.7186927  62.7650040  23.5358097 119.9499314  61.8029845  17.8712897
 119.1666836  62.3451525  17.9651122 120.6492059  62.3203824  18.2707138
 119.8430933  49.7541857  20.2418787 119.4728720  49.2012897  20.9299693
 120.3390025  49.1499990  19.6893787 117.6720131  60.2139352  27.3373805
 118.3729591  60.8475835  27.4903199 117.2015246  60.5554084  26.5769445
 121.5208990  53.5103771  31.6492393 120.8449627  53.4097900  32.3194768
 122.3436624  53.3542984  32.1128390 113.2687849  59.7475707  24.2704908
 113.8541286  59.0019395  24.4032812 113.0712688  60.0579664  25.1541572
 116.1226504  62.7826954  19.2867350 115.4536880  63.2673082  18.8031390
 115.9839374  63.0296175  20.2010729 107.8605504  52.3181307  22.9909351
 107.8989603  51.7844898  23.7846469 107.3545797  51.7916513  22.3720328
 120.2631773  64.8170698  25.8850009 120.8150081  64.9802319  26.6499094
 120.6037967  65.4075136  25.2130034 115.2396266  47.1645848  26.4871893
 115.3037593  48.0260679  26.0749291 115.1763387  46.5519849  25.7544252
 114.7148539  49.2368980  30.1344928 115.3420578  48.8546058  30.7482452
 113.8576458  49.0183182  30.5000620 111.4914082  51.0445409  16.0663282
 111.7867523  50.1356088  16.0130336 110.5902117  51.0233149  15.7444285
 115.0208329  49.1201406  22.0490831 114.2994914  49.7337374  21.9098304
 115.8101584  49.6559171  21.9707477 117.8234642  46.4555833  28.3231483
 118.3469044  46.7018129  29.0857792 117.6046975  47.2875867  27.9034620
 113.2201923  48.7259507  16.1902608 112.8914629  47.8456886  16.0077714
 113.5741294  48.6707176  17.0778997 116.3343746  49.0132477  16.5578085
 116.6739819  49.5418398  15.8356694 116.7815867  49.3512883  17.3336652
 119.0287187  47.3969528  26.0081153 118.6884007  46.5977341  26.4101833
 118.3226193  47.6971238  25.4357987 119.6803659  44.4818840  24.4608476
 120.5029728  44.0079318  24.3387367 119.9241722  45.2609324  24.9607163
 117.2042238  51.1737961  22.2700455 117.0586818  51.4878264  23.1624737
 116.7267441  51.7922861  21.7171354 119.0638621  48.1640509  22.3181345
 119.0500189  47.2681602  21.9813642 119.7811049  48.1711172  22.9519631
 120.9164751  48.5977849  24.3634472 120.6582529  49.5194920  24.3618802
 120.3849792  48.2008283  25.0534936 111.6787900  53.7143305  25.2088116
 111.1341368  54.4903113  25.3408390 112.5567250  54.0614110  25.0507238
 118.4675517  47.0454889  17.5868915 118.5891428  46.1171535  17.7859802
 118.1777559  47.0593575  16.6747230 112.4653922  52.8413201  28.1018273
 111.7235658  52.9895837  28.6882903 112.1446666  53.1021467  27.2385022
 120.4097584  62.3829180  27.8998663 120.7184711  62.1378326  28.7721363
 121.2073066  62.5875818  27.4117533 120.4318196  64.5367089  20.1304040
 119.9923187  64.0443468  20.8236896 121.1826313  63.9940057  19.8896115
 112.9110535  60.7278630  20.1328668 113.7368555  60.4282402  19.7527311
 112.5604587  59.9586252  20.5818456 117.8792069  60.0805098  22.2026341
 117.2572078  59.4175803  21.9028569 118.5496935  60.1066230  21.5199989
 111.1119140  58.6464957  21.0917601 110.2751049  58.2187131  20.9101603
 111.0842786  58.8397400  22.0288392 117.9516596  48.5586886  31.7958847
 118.0004752  49.4349009  31.4136617 118.4939110  48.0164279  31.2230491
 117.4405575  58.6309022  15.6784802 117.5893696  59.3144486  15.0251475
 118.2472019  58.6114112  16.1934258 120.1815885  49.3118259  28.5505206
 119.3119194  49.6051825  28.2787794 120.4175365  49.8958704  29.2712470
 115.1958208  54.6574199  16.6845871 114.9504250  53.7536529  16.8826081
 115.3654123  54.6591350  15.7425349 114.4653856  50.3902557  14.1832032
 113.7723101  50.4646912  13.5272068 114.2205608  49.6262900  14.7053549
 120.9400981  61.1257152  13.1496549 120.3674948  61.7447339  12.6967021
 121.5133775  61.6756514  13.6836471 121.2086472  56.5135711  31.9513259
 122.1289482  56.6914310  32.1453305 121.1736055  55.5691756  31.7992958
 110.4268637  51.7074305  20.8766533 110.1071421  50.8539613  20.5840907
 109.8802065  51.9222883  21.6324501 114.2048545  54.4236746  24.5936040
 114.4234554  55.3553853  24.6124074 114.6174318  54.0644720  25.3790844
 119.0776410  49.9969951  33.9838789 118.9773137  50.9464308  33.9150880
 118.8597952  49.6688190  33.1114859 110.2956897  55.3277216  22.8459655
 109.6020368  54.9131169  22.3329609 111.0429888  55.3697753  22.2493074
 118.9407680  53.4267090  32.8003850 118.4574762  54.2267450  33.0067739
 119.0268619  53.4375035  31.8471294 112.2093640  55.2595470  20.7225670
 112.1864328  55.3583157  19.7707553 112.5194276  56.1060621  21.0442836
 114.8681017  57.3171625  24.8372284 115.8224271  57.2855567  24.7702216
 114.6693541  56.8562249  25.6522510 115.4580400  55.8872741  27.4043082
 116.2773289  56.3816820  27.4277919 115.7317207  54.9704709  27.3760649
 113.2231246  62.8591244  21.8542482 113.0885714  62.0991645  21.2880480
 112.8063309  63.5832144  21.3871271 116.3800372  63.7560561  22.0660925
 116.2632756  64.7005994  21.9639615 115.5592818  63.4534123  22.4546724
 110.7115314  50.2210875  28.1035279 111.3574177  49.7109829  28.5922504
 110.5032465  50.9579556  28.6778704 117.4054886  64.4088823  25.2816853
 118.3082133  64.4412434  25.5983348 117.1792256  63.4789274  25.2963189
 119.1608488  63.1619810  21.9426932 118.2104119  63.1621671  21.8291304
 119.4640974  62.4152544  21.4262966 115.0512805  47.3678492  32.2010293
 115.9144266  47.0115297  32.4113618 114.4778215  47.0292387  32.8885697
 121.9096238  66.3940729  24.1895929 122.1604277  67.2787739  24.4553505
 122.4455787  66.2145331  23.4171020 119.1231282  69.5672632  20.7191884
 119.8102322  69.2534362  20.1312899 118.9679411  70.4713996  20.4459135
 118.6999258  67.6473225  22.9909351 118.7383358  67.1136816  23.7846469
 118.1939551  67.1208430  22.3720328 121.9512895  73.9756874  21.0917601
 121.1144803  73.5479049  20.9101603 121.9236540  74.1689318  22.0288392
 121.2662392  67.0366222  20.8766533 120.9465176  66.1831531  20.5840907
 120.7195820  67.2514800  21.6324501 121.1350652  70.6569134  22.8459655
 120.4414123  70.2423087  22.3329609 121.8823643  70.6989670  22.2493074
 121.5509068  65.5502793  28.1035279 122.1967932  65.0401746  28.5922504
 121.3426219  66.2871474  28.6778704   4.8209522  54.4962314 100.5099347
   4.0673230  53.9269712 100.3543352   4.9557063  54.4624979 101.4569982
   1.6425270  54.4665064  98.4143014   2.0856416  53.7172389  98.0162137
   0.7651780  54.4575201  98.0316746   1.1858135  55.9370303 100.8065462
   2.0205026  56.3760107 100.9703022   1.3217263  55.4608956  99.9873708
   5.2315937  54.6537924 103.2419592   5.9619326  54.3923212 103.8027295
   4.6222883  53.9166646 103.2821660   3.3131234  52.7945787 103.8394043
   2.5864398  52.6601752 103.2310534   2.8978521  53.1022615 104.6450761
   0.9309029  49.0157639 101.1927474   1.5253520  48.7753375 100.4820783
   1.0035613  48.2964769 101.8201011   3.2380102  52.3223840  99.9670896
   2.6779660  52.3917029 100.7402458   2.6323605  52.1464824  99.2470392
   4.8236120  68.9980354 102.6600851   5.4614530  68.8787101 101.9564191
   4.7056963  69.9461198 102.7188803   1.6325827  68.9507782 102.5962376
   1.2944338  68.8348846 101.7082911   2.5015595  68.5498947 102.5763382
   3.0712201  74.4714226  93.8973732   2.4200181  75.0568306  93.5107746
   3.8656564  75.0020421  93.9568769   4.3777389  66.7231807  99.7354059
   5.1640478  66.3051231  99.3844476   4.6416093  67.6277900  99.9035708
   4.5487466  72.1604658  94.4342716   3.9133299  72.2339284  95.1463621
   4.2184873  72.7498257  93.7561795   9.7785816  66.6607041 100.6387038
  10.5110988  66.0906257 100.8724867   9.0225172  66.2728641 101.0793543
   1.3961936  69.0834282  97.8350380   1.0320143  68.5564903  98.5463302
   2.2529052  68.6932751  97.6616866   7.3011236  60.3728615 105.0981646
   6.9694561  61.2424026 104.8742861   6.7056850  60.0564899 105.7775677
   1.0367423  64.1124182  92.8311729   1.2041825  64.9804418  93.1982200
   0.8464592  64.2751464  91.9073018   3.7942756  72.5741161 104.4977559
   3.4943479  73.4766200 104.3893366   3.4493815  72.3073344 105.3498712
   7.1939900  65.0923701 102.1774996   6.2856777  65.0239109 101.8833757
   7.1427495  65.5695646 103.0056822   9.0601546  63.2940139 103.9552870
   8.4175926  63.5872672 103.3092665   8.5556475  63.1793060 104.7606067
   6.7141710  67.0403313  94.6438730   7.6259566  67.2730699  94.4686427
   6.2051357  67.6240357  94.0813808   4.9982477  71.4627940 108.2800022
   5.4065833  71.0210351 107.5354655   4.2759739  70.8880568 108.5334215
   1.3513547  66.4000547 105.6533579   2.1974743  66.8239961 105.7968228
   1.2912185  65.7434171 106.3472142   5.3211292  72.0229131 102.0352311
   4.6920154  72.1874845 101.3328379   4.9336954  72.4370741 102.8063275
   9.2000524  72.9583569  99.3896675   8.5151562  73.3382470  98.8393708
   9.2844373  73.5678895 100.1228623   4.5012993  64.0604915 107.3114753
   4.2573925  64.8146976 106.7749029   4.7772923  64.4390263 108.1462000
   6.4551455  70.6043528 105.9892018   6.6668351  71.2475288 105.3126400
   6.4081204  69.7705844 105.5213949   4.0577684  63.2161348 102.8928591
   3.1962163  63.5142602 103.1845328   4.0840119  63.4331747 101.9609623
   0.8739254  71.7603539  99.3002396   1.3377599  72.0391242  98.5107019
   0.6096052  70.8586984  99.1175487   7.5697283  73.4815483 104.1614376
   8.3914727  73.0795671 103.8797057   7.5659686  73.3783717 105.1130492
  15.6603276  69.8254232 100.5099347  14.9066985  69.2561630 100.3543352
  15.7950818  69.7916896 101.4569982   1.0501905  74.6967634  96.1854067
   0.9147579  75.5419170  96.6138914   1.5911717  74.8986912  95.4220000
   4.3994368  58.2198196 104.7152960   4.0558637  59.1099838 104.6392071
   4.7673331  58.0299854 103.8522545   4.3644651  68.2106807  93.2225395
   3.8491274  68.9811412  93.4613783   4.0921959  67.5371943  93.8458457
   1.9491762  63.0556508  98.2810634   1.0933358  62.6663358  98.1016272
   2.3618714  63.1348469  97.4210419   3.4790908  60.5902851 102.6802193
   2.9755704  60.5532986 101.8669999   3.7721515  61.4995594 102.7398850
   9.3378925  70.9639162  95.1578569   8.5608368  70.6250321  94.7133731
  10.0170406  70.9691785  94.4833534   4.1530954  66.0833899  95.0485176
   3.8481090  66.3980048  95.8995320   5.1061396  66.1615319  95.0912509
   2.5977386  72.2424122  96.6978130   2.0698747  71.5076882  96.3851368
   2.0964889  73.0198799  96.4518099   7.5770232  70.4373143 101.8145177
   6.9193906  71.1272404 101.9025305   8.3810631  70.8269575 102.1579163
   6.3875691  68.7917516  99.8649118   6.9007572  69.4247507 100.3670828
   7.0376915  68.1918711  99.4992478   3.6498065  78.7701840  92.6209790
   2.9759764  79.0733537  93.2294747   4.0363887  79.5730920  92.2715247
   2.8656522  66.2666971 102.1107459   1.9479083  66.4881918 101.9529147
   3.2816665  66.3413282 101.2519166   3.6491569  67.6658387  97.2410139
   4.3963388  68.1779784  96.9317261   3.9183159  67.3442440  98.1014533
   1.9218219  70.1616928  94.2237093   1.0129439  69.8775960  94.3209563
   1.9513303  70.5816006  93.3640400   7.1537487  73.7723517  97.9928261
   6.6999814  72.9314427  98.0493451   6.5231454  74.4084915  98.3303041
   6.0970406  64.7015503  99.2228928   5.3593163  64.1892889  99.5539171
   6.3497180  64.2615885  98.4112205   5.5970426  75.6100014  98.9278079
   5.8893400  76.1705071  98.2090445   6.1069047  75.9028575  99.6831238
   6.1982034  57.4791755  99.8170698   6.5040911  56.6189119  99.5296613
   6.9234639  58.0709375  99.6169692   1.6194307  71.7025671  91.5625172
   1.1813737  70.9861530  91.1030809   2.3604748  71.9301786  91.0010263
   0.5604051  76.3880365 100.0171532   0.5180230  76.6141211  99.0880064
   1.4766750  76.1543739 100.1657334   4.0069685  66.8564432 106.9152162
   4.3619073  67.0835906 107.7746627   4.6541816  67.1882809 106.2929417
   9.7367422  69.9782868  97.6201491   9.5985321  70.1684464  96.6922680
   9.3803641  70.7402251  98.0769542   9.7636802  72.0459395 102.6312762
  10.1973308  71.9534684 103.4795816  10.4768382  72.0216896 101.9932778
   3.4964697  75.6461489 104.1645863   3.5501719  76.2152426 104.9323579
   2.6279478  75.8163374 103.7999900  10.6252351  72.0883096 105.1645648
  10.8188241  72.9928906 105.4104922  10.5252969  71.6290515 105.9984233
   2.2788662  61.9740987 107.6635975   1.6316577  62.6730936 107.5700451
   3.0489677  62.4077130 108.0312223   2.4552796  69.8121751 105.7232795
   3.3844856  69.9632911 105.5501762   2.0343826  69.9005772 104.8681441
   1.8489280  78.9381512  94.8356869   2.0241036  78.4669556  95.6502491
   1.1622068  79.5647279  95.0638129   2.8046343  73.2154019 100.8820170
   2.4696176  73.1754789 101.7777820   2.3050289  72.5498734 100.4090580
   5.7405535  70.5610053  91.1557230   5.1234706  69.8356881  91.0590282
   5.2722023  71.3219413  90.8124304   7.3959667  75.2708961 108.8163010
   7.3372213  74.5868181 108.1493593   7.7979185  76.0127951 108.3643636
   7.3977074  73.2348545 107.0476990   6.5103853  72.8974467 107.1703389
   7.9675625  72.5031576 107.2845755   4.0264657  62.9416397 100.1675260
   4.5233356  62.1886359  99.8476330   3.2551638  62.9780714  99.6018469
  11.8794414  68.6456763 101.8093551  11.8684291  69.5281478 101.4387484
  11.0111794  68.2928313 101.6148088   5.1094438  71.6988084  97.7413683
   4.1750716  71.8189547  97.5718388   5.2871106  70.7960551  97.4773693
   8.4966989  67.5405404  98.2763717   8.9627441  68.3733395  98.2024020
   8.9474489  67.0750385  98.9808976   6.5643220  73.8849225  95.2749869
   6.8403064  73.7705819  96.1843743   5.6947719  73.4866710  95.2362042
   6.4683652  59.9085991 102.3154619   5.5546732  60.1390217 102.4836826
   6.8976753  59.9924435 103.1668651   6.2390110  68.0975882 104.8154513
   5.5861560  68.3451790 104.1606965   6.6170490  67.2840021 104.4816990
   3.1997284  78.1335576  98.9182683   3.3819679  77.3157232  99.3810435
   4.0230270  78.3503268  98.4807573   3.5339450  77.0603761  96.1797731
   4.0627216  76.5496215  95.5667894   3.7967669  76.7446291  97.0443265
   4.1668853  78.0944597 102.5241848   4.0419993  77.2934336 102.0152793
   4.8247945  78.5890790 102.0355818   6.2303762  75.8953617 104.1521398
   5.2834097  75.7758968 104.0799725   6.5786535  75.0076115 104.2347659
   3.2350195  75.6906333 100.3525750   3.0875158  74.7623040 100.5333320
   4.0603689  75.7126424  99.8682825   6.8384317  76.5134892 101.4390623
   7.7630864  76.3077753 101.3015074   6.6699620  76.2651293 102.3479964
   3.2311709  63.5444170  95.3457867   3.4475324  64.4268808  95.0446696
   2.7505777  63.1530384  94.6163509   1.6833444  63.9269772 104.0162629
   1.4251222  64.8486843 104.0146959   1.1518485  63.5300206 104.7063093
   6.6279633  77.0320559  96.7952714   6.8016511  76.4666981  96.0426567
   7.1208524  77.8321454  96.6132204   2.1035400  60.0601722 100.3763792
   2.1257097  60.1241055  99.4215771   2.5203459  59.2206231 100.5704298
  12.4819024  69.7956982  98.4143014  12.9250170  69.0464307  98.0162137
  11.6045535  69.7867118  98.0316746   7.6154806  76.3487323  93.8949613
   8.3105710  76.9694016  94.1136927   7.9577956  75.4982675  94.1701991
   9.5146229  73.7987029  95.4236944  10.0397553  74.1374302  94.6986264
   9.4268581  72.8634044  95.2400078   1.1986889  79.8659012  99.7832197
   0.7591880  79.3735391 100.4765053   1.9495006  79.3231980  99.5424272
   9.3238010  71.2812399 108.0420870   9.3736015  71.1162406 108.9836393
   9.2151933  70.4139658 107.6518751   6.6141772  67.2643327 109.3580177
   7.5151635  67.1249792 109.0664175   6.6889747  67.4297782 110.2978354
  10.8256207  73.7009340 108.2862892  10.5341015  74.0639321 109.1226353
  10.2128338  72.9876349 108.1076224  12.0251889  71.2662220 100.8065462
  12.8598780  71.7052024 100.9703022  12.1611018  70.7900873  99.9873708
   9.0743395  68.8241955 106.7542950   9.5497517  69.0169601 105.9461801
   8.1508960  68.8801141 106.5086333   3.6523611  60.8589799 105.7198783
   4.1705555  61.5950826 105.3945272   3.2978744  61.1653792 106.5545543
   3.9036206  57.2790081 101.2399680   4.1837959  56.6113270 101.8660107
   4.6886813  57.4719177 100.7274344   1.7069674  76.4549075  92.8024706
   1.1343641  77.0739262  92.3495178   2.2802468  77.0048437  93.3364628
   7.7745064  65.7007715 104.9871255   8.7262487  65.8005813 105.0083479
   7.6048514  64.9085984 105.4969339   5.7959443  62.7863298 105.1730656
   5.2009376  63.0668311 104.4777145   5.5109140  63.2757199 105.9447397
   4.9266934  76.7386225  93.9333289   5.8597607  76.6731787  94.1366164
   4.8390147  77.5742492  93.4747821   7.5554951  76.0552096  90.8937236
   7.4768582  75.7211959  91.7872994   8.3764617  76.5473863  90.8928709
  10.2533142  68.9213835 104.1013555  10.2209462  67.9829836 104.2873239
  10.8633765  68.9997872 103.3679380   2.0916473  67.7909888  90.1440759
   3.0375577  67.6616096  90.2129177   1.7130718  67.0524550  90.6210187
  10.4027630  65.7124878 104.1471838   9.8866679  64.9283335 103.9601767
  11.2867579  65.3843595 104.3118357   8.0638357  59.4565894 100.1067651
   7.8663178  59.1480982 100.9910983   8.6738063  60.1827533 100.2365580
  16.0709692  69.9829842 103.2419592  16.8013080  69.7215130 103.8027295
  15.4616637  69.2458564 103.2821660  14.1524989  68.1237704 103.8394043
  13.4258152  67.9893669 103.2310534  13.7372276  68.4314533 104.6450761
   1.8921455  60.2596754  96.2339885   1.0822184  59.9143839  96.6095131
   2.5805872  59.9504298  96.8227497   3.8212004  59.3374801  97.8564182
   4.3743042  59.7570254  98.5154205   4.0582090  58.4110549  97.8987138
   7.1990811  61.4475326  97.3642846   6.6189480  62.1060130  96.9820899
   6.9326744  60.6252671  96.9530264   5.6494377  60.8480384  99.5664167
   6.1494156  60.9596918  98.7578485   6.2929985  60.5441436 100.2064975
   5.9815689  63.6075416  96.4199195   5.0941544  63.8925067  96.2019389
   6.3969678  63.4469180  95.5726471   9.3330225  63.6321937 100.1353534
  10.1090615  64.1218390 100.4078151   8.6078359  64.0579991 100.5925403
  11.7702784  64.3449556 101.1927474  12.3647274  64.1045292 100.4820783
  11.8429367  63.6256687 101.8201011   5.1258902  73.3720091  90.5147214
   5.8294752  73.5770093  91.1304870   4.4021551  73.9396853  90.7796298
   5.9556713  69.1229952  96.6349485   5.8991914  69.5798504  95.7957117
   6.5085055  68.3620637  96.4572327   9.7661519  64.9119684  97.4599604
   9.5098453  64.5116320  98.2907812   9.1414387  65.6263478  97.3349743
  14.0773856  67.6515757  99.9670896  13.5173414  67.7208947 100.7402458
  13.4717360  67.4756742  99.2470392   7.0345600  73.8102620  92.5645675
   7.8691204  73.3783819  92.3823149   6.8729943  73.6384634  93.4922569
   6.6891492  70.3134733  93.9302014   6.6340296  70.1479005  92.9890458
   6.0637547  71.0210766  94.0864204   3.8139737  56.4085619  97.7633269
   3.0472133  55.8544106  97.9089951   4.2250442  56.4807488  98.6247421
  15.6629875  84.3272271 102.6600851  16.3008285  84.2079019 101.9564191
  15.5450718  85.2753115 102.7188803  12.4719581  84.2799699 102.5962376
  12.1338093  84.1640764 101.7082911  13.3409349  83.8790864 102.5763382
   8.3306397  86.1335176  98.5859267   7.7671262  86.0425113  97.8175555
   8.2158792  85.3135080  99.0661759  13.9105956  89.8006143  93.8973732
  13.2593935  90.3860224  93.5107746  14.7050318  90.3312338  93.9568769
   7.8361583  86.8895281  94.2960866   8.6092459  86.3424268  94.1573742
   8.1886982  87.7539530  94.5075328  10.6002832  85.5948511 104.0929125
  11.1966404  85.3704534 103.3786088  10.6577804  84.8533257 104.6954573
  10.1727860  83.0487947  91.9279316  10.4253381  82.5269468  91.1662779
   9.2352420  82.8854092  92.0306000  15.2171143  82.0523725  99.7354059
  16.0034233  81.6343148  99.3844476  15.4809848  82.9569817  99.9035708
  15.3881221  87.4896575  94.4342716  14.7527054  87.5631202  95.1463621
  15.0578627  88.0790174  93.7561795  20.6179570  81.9898958 100.6387038
  21.3504742  81.4198175 100.8724867  19.8618926  81.6020559 101.0793543
   9.8924149  84.9516053  94.1303691   9.7760407  84.2760956  94.7984775
  10.0026409  84.4648427  93.3135844  12.2355690  84.4126200  97.8350380
  11.8713897  83.8856821  98.5463302  13.0922806  84.0224669  97.6616866
  18.1404991  75.7020532 105.0981646  17.8088316  76.5715943 104.8742861
  17.5450604  75.3856816 105.7775677  11.8761177  79.4416100  92.8311729
  12.0435579  80.3096336  93.1982200  11.6858346  79.6043381  91.9073018
  14.6336510  87.9033078 104.4977559  14.3337233  88.8058117 104.3893366
  14.2887570  87.6365262 105.3498712   8.0848992  84.3546875 100.5314264
   7.1599488  84.2223089 100.7391955   8.3333405  85.1341095 101.0284206
  18.0333654  80.4215619 102.1774996  17.1250531  80.3531027 101.8833757
  17.9821250  80.8987564 103.0056822  11.8550398  81.8973757  93.8158396
  11.7350023  82.3430808  94.6543876  11.1602986  82.2459075  93.2571934
   9.6157290  94.6677399  97.4648527   9.5381320  95.6185224  97.5437007
   9.0118934  94.3223271  98.1223453  19.8995301  78.6232057 103.9552870
  19.2569681  78.9164590 103.3092665  19.3950229  78.5084977 104.7606067
  17.5535464  82.3695230  94.6438730  18.4653320  82.6022617  94.4686427
  17.0445111  82.9532274  94.0813808  15.8376232  86.7919858 108.2800022
  16.2459588  86.3502269 107.5354655  15.1153493  86.2172486 108.5334215
  12.1907302  81.7292465 105.6533579  13.0368497  82.1531878 105.7968228
  12.1305940  81.0726089 106.3472142  16.1605046  87.3521049 102.0352311
  15.5313909  87.5166763 101.3328379  15.7730709  87.7662658 102.8063275
  20.0394278  88.2875487  99.3896675  19.3545317  88.6674388  98.8393708
  20.1238128  88.8970813 100.1228623  15.3406747  79.3896833 107.3114753
  15.0967679  80.1438894 106.7749029  15.6166678  79.7682181 108.1462000
  17.2945210  85.9335446 105.9892018  17.5062105  86.5767205 105.3126400
  17.2474958  85.0997762 105.5213949  14.8971439  78.5453266 102.8928591
  14.0355918  78.8434520 103.1845328  14.9233874  78.7623665 101.9609623
  11.7133008  87.0895457  99.3002396  12.1771354  87.3683160  98.5107019
  11.4489806  86.1878901  99.1175487   8.6057089  86.6366938 102.2382159
   9.1758446  87.0654207 101.5999644   9.1965201  86.3549523 102.9366345
  10.6501894  83.2118609  96.1091961  11.3525938  83.6639653  96.5765888
  10.3182523  82.5702428  96.7371855   4.3927228  81.4702162 101.4109095
   3.6026282  81.7259690 100.9349206   4.8838476  82.2850500 101.5161135
  18.4091038  88.8107401 104.1614376  19.2308482  88.4087588 103.8797057
  18.4053441  88.7075635 105.1130492   6.3441974  81.8346741  98.3692572
   5.5473137  81.9465435  98.8876067   6.1167566  82.1733393  97.5033462
  26.4997031  85.1546149 100.5099347  25.7460739  84.5853548 100.3543352
  26.6344572  85.1208814 101.4569982  11.8895659  90.0259552  96.1854067
  11.7541334  90.8711087  96.6138914  12.4305472  90.2278829  95.4220000
   5.3425056  87.5434990  96.7581992   5.8549577  88.3378240  96.9087556
   5.9947769  86.8461280  96.6915593   7.1519941  90.6600746  98.8404745
   7.3286569  91.5818711  98.6525729   7.9476775  90.3459165  99.2699125
  11.2930960  77.5209011 110.4388678  12.0340673  78.1216164 110.3593141
  11.5248882  76.7786648 109.8806721  15.2388123  73.5490114 104.7152960
  14.8952392  74.4391755 104.6392071  15.6067085  73.3591771 103.8522545
   3.3073973  85.8723644  97.5341562   4.1449195  86.2820652  97.3175270
   3.4852241  84.9323086  97.5041756  15.2038405  83.5398725  93.2225395
  14.6885029  84.3103329  93.4613783  14.9315714  82.8663861  93.8458457
  12.7885516  78.3848426  98.2810634  11.9327113  77.9955276  98.1016272
  13.2012468  78.4640386  97.4210419  14.3184663  75.9194769 102.6802193
  13.8149459  75.8824904 101.8669999  14.6115270  76.8287511 102.7398850
  10.5627549  76.0033498 101.6868375  11.4280546  75.8076307 101.3274265
  10.6305058  75.7743850 102.6137732  20.1772679  86.2931079  95.1578569
  19.4002122  85.9542239  94.7133731  20.8564160  86.2983703  94.4833534
  14.9924708  81.4125817  95.0485176  14.6874844  81.7271966  95.8995320
  15.9455151  81.4907237  95.0912509  13.4371140  87.5716040  96.6978130
  12.9092502  86.8368800  96.3851368  12.9358643  88.3490716  96.4518099
  18.4163986  85.7665061 101.8145177  17.7587661  86.4564322 101.9025305
  19.2204386  86.1561493 102.1579163   8.1689868  78.2335706  99.0584742
   8.7433620  78.0110888  98.3257935   8.7560850  78.3024401  99.8113343
  17.2269445  84.1209433  99.8649118  17.7401327  84.7539425 100.3670828
  17.8770669  83.5210629  99.4992478   8.4959455  80.2640167  93.0780627
   7.6596767  80.6014854  93.3989902   8.3564225  80.1289147  92.1407764
  10.4712536  75.1076955  97.7859811   9.8176948  74.7925972  97.1616426
  10.4293010  74.4852696  98.5119634  11.5823741  85.3896250  89.7013103
  10.6750802  85.1585504  89.9004252  12.0794772  84.5933870  89.8887085
  14.4891819  94.0993758  92.6209790  13.8153518  94.4025454  93.2294747
  14.8757641  94.9022838  92.2715247  13.7050276  81.5958889 102.1107459
  12.7872837  81.8173836 101.9529147  14.1210420  81.6705199 101.2519166
  14.4885324  82.9950305  97.2410139  15.2357143  83.5071702  96.9317261
  14.7576913  82.6734357  98.1014533  12.7611974  85.4908845  94.2237093
  11.8523193  85.2067878  94.3209563  12.7907058  85.9107924  93.3640400
  17.9931241  89.1015435  97.9928261  17.5393568  88.2606345  98.0493451
  17.3625208  89.7376833  98.3303041  16.9364161  80.0307421  99.2228928
  16.1986918  79.5184807  99.5539171  17.1890934  79.5907802  98.4112205
  16.4364181  90.9391931  98.9278079  16.7287155  91.4996989  98.2090445
  16.9462801  91.2320492  99.6831238  17.0375788  72.8083673  99.8170698
  17.3434665  71.9481036  99.5296613  17.7628393  73.4001293  99.6169692
   3.3300144  83.2114359  98.2052296   3.1324544  82.6183720  97.4803362
   2.7746808  82.9066570  98.9228234  11.3096868  83.1037466 100.3246889
  11.3645478  82.1511302 100.2489365  10.4988070  83.2596905 100.8088187
  12.4588062  87.0317589  91.5625172  12.0207492  86.3153448  91.1030809
  13.1998503  87.2593704  91.0010263   9.2489228  81.7214526  98.0837268
   8.4357093  82.0208696  98.4902460   9.7448222  81.3270214  98.8011750
  11.3997806  91.7172283 100.0171532  11.3573985  91.9433129  99.0880064
  12.3160505  91.4835657 100.1657334  14.8463440  82.1856350 106.9152162
  15.2012827  82.4127823 107.7746627  15.4935571  82.5174727 106.2929417
  20.5761177  85.3074786  97.6201491  20.4379075  85.4976382  96.6922680
  20.2197395  86.0694169  98.0769542   8.7403303  79.2932881 103.6998503
   9.3802682  79.1521640 103.0021466   7.9080833  79.0067395 103.3237105
  20.6030556  87.3751313 102.6312762  21.0367063  87.2826602 103.4795816
  21.3162137  87.3508813 101.9932778   9.5163607  88.5935312  99.8133495
  10.3104205  88.0985632  99.6116070   8.8055299  88.0653175  99.4501201
  14.3358451  90.9753407 104.1645863  14.3895473  91.5444343 104.9323579
  13.4673232  91.1455292 103.7999900   5.8246370  82.7378393  95.8893248
   4.8943958  82.6762849  96.1063210   5.9203842  82.2154346  95.0929889
   5.7431919  79.2633206  98.4771489   6.0038736  80.1778539  98.3680650
   6.5649091  78.7957649  98.6268102  21.4646106  87.4175014 105.1645648
  21.6581996  88.3220824 105.4104922  21.3646724  86.9582433 105.9984233
  13.1182416  77.3032904 107.6635975  12.4710331  78.0022854 107.5700451
  13.8883432  77.7369048 108.0312223  13.2946551  85.1413669 105.7232795
  14.2238611  85.2924829 105.5501762  12.8737581  85.2297690 104.8681441
  12.0934883  89.1664334 103.4931332  11.9545968  88.7983118 104.3657270
  11.3049479  89.6811973 103.3215290  12.6883035  94.2673430  94.8356869
  12.8634790  93.7961473  95.6502491  12.0015823  94.8939196  95.0638129
  13.6440098  88.5445936 100.8820170  13.3089930  88.5046706 101.7777820
  13.1444043  87.8790652 100.4090580  16.5799289  85.8901971  91.1557230
  15.9628460  85.1648799  91.0590282  16.1115778  86.6511331  90.8124304
  18.2353421  90.6000879 108.8163010  18.1765967  89.9160099 108.1493593
  18.6372939  91.3419869 108.3643636   8.3697835  80.1087395  90.2778534
   7.4927302  79.9876196  89.9140781   8.8455588  79.3173473  90.0257423
  18.2370828  88.5640463 107.0476990  17.3497607  88.2266385 107.1703389
  18.8069379  87.8323494 107.2845755  11.5561761  92.4613685  97.5241054
  10.7729283  93.0035365  97.6179279  12.2554506  92.9787665  97.9235296
  14.8658411  78.2708315 100.1675260  15.3627111  77.5178277  99.8476330
  14.0945393  78.3072631  99.6018469  22.7188169  83.9748680 101.8093551
  22.7078045  84.8573396 101.4387484  21.8505548  83.6220231 101.6148088
  15.9488192  87.0280002  97.7413683  15.0144471  87.1481464  97.5718388
  16.1264861  86.1252469  97.4773693  11.4493380  80.4125698  99.8946944
  11.0791168  79.8596738 100.5827850  11.9452473  79.8083831  99.3421944
  19.3360743  82.8697321  98.2763717  19.8021196  83.7025313  98.2024020
  19.7868244  82.4042303  98.9808976  17.4036975  89.2141142  95.2749869
  17.6796818  89.0997737  96.1843743  16.5341473  88.8158627  95.2362042
  17.3077406  75.2377908 102.3154619  16.3940486  75.4682135 102.4836826
  17.7370508  75.3216352 103.1668651  17.0783865  83.4267800 104.8154513
  16.4255315  83.6743708 104.1606965  17.4564245  82.6131938 104.4816990
  14.0391039  93.4627493  98.9182683  14.2213433  92.6449149  99.3810435
  14.8624025  93.6795186  98.4807573  14.3733204  92.3895678  96.1797731
  14.9020971  91.8788133  95.5667894  14.6361424  92.0738209  97.0443265
   6.8458714  77.8229688 106.1400050   6.9100040  78.6844519 105.7277448
   6.7825834  77.2103690 105.4072409   3.0976529  81.7029250  95.7191440
   3.3929970  80.7939929  95.6658493   2.1964565  81.6816990  95.3972442
  15.0062608  93.4236514 102.5241848  14.8813747  92.6226254 102.0152793
  15.6641699  93.9182708 102.0355818   6.6270776  79.7785247 101.7018988
   5.9057362  80.3921214 101.5626461   7.4164032  80.3143012 101.6235634
  17.0697516  91.2245534 104.1521398  16.1227852  91.1050885 104.0799725
  17.4180289  90.3368032 104.2347659   9.4297090  77.1139673 107.9759640
   9.9531491  77.3601970 108.7385949   9.2109423  77.9459708 107.5562777
   4.8264371  79.3843348  95.8430765   4.4977077  78.5040727  95.6605871
   5.1803741  79.3291016  96.7307154  14.0743950  91.0198251 100.3525750
  13.9268912  90.0914958 100.5333320  14.8997443  91.0418341  99.8682825
   7.9406194  79.6716318  96.2106242   8.2802266  80.2002239  95.4884851
   8.3878314  80.0096724  96.9864809  17.6778071  91.8426809 101.4390623
  18.6024619  91.6369671 101.3015074  17.5093375  91.5943210 102.3479964
  10.6349635  78.0553368 105.6609310  10.2946455  77.2561181 106.0629990
   9.9288641  78.3555079 105.0886144  11.2866107  75.1402681 104.1136633
  12.1092176  74.6663159 103.9915524  11.5304170  75.9193164 104.6135320
   9.9274341  78.1690939  94.4099535  10.6482704  78.5472192  93.9063252
   9.3039645  78.8879816  94.5134513  14.0705464  78.8736088  95.3457867
  14.2869078  79.7560726  95.0446696  13.5899531  78.4822302  94.6163509
   8.8104685  81.8321801 101.9228612   8.6649266  82.1462104 102.8152894
   8.3329889  82.4506702 101.3699511  10.6701068  78.8224349 101.9709502
  10.6562637  77.9265443 101.6341800  11.3873496  78.8295013 102.6047788
  12.5227199  79.2561690 104.0162629  12.2644977  80.1778760 104.0146959
  11.9912239  78.8592124 104.7063093  17.4673388  92.3612477  96.7952714
  17.6410265  91.7958899  96.0426567  17.9602279  93.1613372  96.6132204
  10.0737964  77.7038730  97.2397072  10.1953875  76.7755376  97.4387959
   9.7840006  77.7177416  96.3275387  12.9429154  75.3893640 100.3763792
  12.9650851  75.4532973  99.4215771  13.3597213  74.5498149 100.5704298
  23.3212779  85.1248900  98.4143014  23.7643925  84.3756225  98.0162137
  22.4439289  85.1159036  98.0316746  18.4548560  91.6779241  93.8949613
  19.1499465  92.2985934  94.1136927  18.7971710  90.8274592  94.1701991
  20.3539983  89.1278947  95.4236944  20.8791307  89.4666219  94.6986264
  20.2662336  88.1925962  95.2400078  12.0380644  95.1950930  99.7832197
  11.5985634  94.7027309 100.4765053  12.7888761  94.6523898  99.5424272
  20.1631764  86.6104317 108.0420870  20.2129769  86.4454324 108.9836393
  20.0545688  85.7431576 107.6518751   9.0468023  89.2892862  95.3312959
   9.1956143  89.9728327  94.6779632   9.8534466  89.2697952  95.8462415
  17.4535527  82.5935245 109.3580177  18.3545389  82.4541710 109.0664175
  17.5283501  82.7589699 110.2978354  11.7878332  79.9702099 108.2033363
  10.9181641  80.2635665 107.9315952  12.0237812  80.5542544 108.9240627
  21.6649961  89.0301258 108.2862892  21.3734769  89.3931239 109.1226353
  21.0522092  88.3168266 108.1076224  22.8645643  86.5954138 100.8065462
  23.6992535  87.0343942 100.9703022  23.0004772  86.1192791  99.9873708
  19.9137149  84.1533873 106.7542950  20.3891271  84.3461519 105.9461801
  18.9902715  84.2093059 106.5086333   6.8020656  85.3158040  96.3374028
   6.5566698  84.4120370  96.5354238   6.9716571  85.3175190  95.3953506
  14.4917366  76.1881716 105.7198783  15.0099310  76.9242743 105.3945272
  14.1372499  76.4945710 106.5545543   6.0716304  81.0486398  93.8360189
   5.3785548  81.1230753  93.1800225   5.8268055  80.2846741  94.3581706
  14.7429960  72.6081999 101.2399680  15.0231714  71.9405188 101.8660107
  15.5280567  72.8011094 100.7274344  12.5463429  91.7840993  92.8024706
  11.9737396  92.4031180  92.3495178  13.1196222  92.3340354  93.3364628
  18.6138818  81.0299633 104.9871255  19.5656241  81.1297731 105.0083479
  18.4442269  80.2377901 105.4969339  16.6353198  78.1155216 105.1730656
  16.0403130  78.3960229 104.4777145  16.3502895  78.6049117 105.9447397
  15.7660688  92.0678143  93.9333289  16.6991362  92.0023705  94.1366164
  15.6783901  92.9034410  93.4747821  18.3948705  91.3844013  90.8937236
  18.3162337  91.0503877  91.7872994  19.2158372  91.8765781  90.8928709
  21.0926896  84.2505753 104.1013555  21.0603216  83.3121753 104.2873239
  21.7027520  84.3289789 103.3679380  12.9310227  83.1201806  90.1440759
  13.8769332  82.9908014  90.2129177  12.5524472  82.3816467  90.6210187
  21.2421385  81.0416796 104.1471838  20.7260433  80.2575253 103.9601767
  22.1261333  80.7135513 104.3118357  18.9032112  74.7857812 100.1067651
  18.7056933  74.4772900 100.9910983  19.5131817  75.5119450 100.2365580
  26.9103446  85.3121759 103.2419592  27.6406835  85.0507048 103.8027295
  26.3010392  84.5750481 103.2821660  24.9918743  83.4529622 103.8394043
  24.2651907  83.3185587 103.2310534  24.5766030  83.7606451 104.6450761
  11.1153144  81.0451782  90.0795644  10.2084600  80.7484895  90.1558358
  11.3929125  80.7481600  89.2129930  12.7315210  75.5888672  96.2339885
  11.9215938  75.2435757  96.6095131  13.4199627  75.2796215  96.8227497
  14.6605758  74.6666718  97.8564182  15.2136797  75.0862172  98.5154205
  14.8975845  73.7402467  97.8987138   9.8851929  77.9038717  90.2207623
  10.7471093  78.2293615  90.4803441  10.0702273  77.1170213  89.7080689
  18.0384565  76.7767244  97.3642846  17.4583234  77.4352048  96.9820899
  17.7720498  75.9544588  96.9530264  16.4888132  76.1772301  99.5664167
  16.9887910  76.2888836  98.7578485  17.1323740  75.8733354 100.2064975
  16.8209443  78.9367334  96.4199195  15.9335298  79.2216985  96.2019389
  17.2363432  78.7761097  95.5726471  20.1723979  78.9613855 100.1353534
  20.9484370  79.4510307 100.4078151  19.4472114  79.3871909 100.5925403
  22.6096538  79.6741474 101.1927474  23.2041029  79.4337210 100.4820783
  22.6823122  78.9548605 101.8201011  15.9652657  88.7012009  90.5147214
  16.6688507  88.9062011  91.1304870  15.2415306  89.2688771  90.7796298
  16.7950467  84.4521870  96.6349485  16.7385668  84.9090421  95.7957117
  17.3478810  83.6912555  96.4572327  20.6055273  80.2411602  97.4599604
  20.3492207  79.8408237  98.2907812  19.9808141  80.9555396  97.3349743
  24.9167611  82.9807675  99.9670896  24.3567169  83.0500864 100.7402458
  24.3111114  82.8048660  99.2470392  17.8739354  89.1394538  92.5645675
  18.7084958  88.7075736  92.3823149  17.7123697  88.9676552  93.4922569
  17.5285246  85.6426651  93.9302014  17.4734050  85.4770923  92.9890458
  16.9031302  86.3502684  94.0864204  10.8381372  75.1434760  93.5087332
  10.8260042  76.0876600  93.6655603  11.7304794  74.9604906  93.2146793
  14.6533491  71.7377537  97.7633269  13.8865887  71.1836023  97.9089951
  15.0644196  71.8099406  98.6247421  26.5023629  99.6564189 102.6600851
  27.1402039  99.5370936 101.9564191  26.3844472 100.6045033 102.7188803
  23.3113336  99.6091617 102.5962376  22.9731847  99.4932682 101.7082911
  24.1803104  99.2082782 102.5763382  19.1700151 101.4627093  98.5859267
  18.6065016 101.3717030  97.8175555  19.0552546 100.6426998  99.0661759
  24.7499710 105.1298061  93.8973732  24.0987690 105.7152142  93.5107746
  25.5444073 105.6604256  93.9568769  18.6755337 102.2187198  94.2960866
  19.4486213 101.6716185  94.1573742  19.0280736 103.0831448  94.5075328
  21.4396587 100.9240429 104.0929125  22.0360159 100.6996452 103.3786088
  21.4971558 100.1825175 104.6954573  21.0121615  98.3779864  91.9279316
  21.2647136  97.8561386  91.1662779  20.0746174  98.2146010  92.0306000
  26.0564898  97.3815643  99.7354059  26.8427987  96.9635066  99.3844476
  26.3203602  98.2861735  99.9035708  26.2274975 102.8188493  94.4342716
  25.5920808 102.8923120  95.1463621  25.8972382 103.4082092  93.7561795
  31.4573325  97.3190876 100.6387038  32.1898497  96.7490093 100.8724867
  30.7012681  96.9312476 101.0793543  20.7317904 100.2807970  94.1303691
  20.6154162  99.6052874  94.7984775  20.8420164  99.7940344  93.3135844
  23.0749445  99.7418118  97.8350380  22.7107652  99.2148738  98.5463302
  23.9316561  99.3516587  97.6616866  28.9798745  91.0312450 105.0981646
  28.6482070  91.9007861 104.8742861  28.3844359  90.7148734 105.7775677
  22.7154932  94.7708017  92.8311729  22.8829334  95.6388254  93.1982200
  22.5252101  94.9335299  91.9073018  25.4730265 103.2324996 104.4977559
  25.1730988 104.1350035 104.3893366  25.1281324 102.9657179 105.3498712
  18.9242746  99.6838793 100.5314264  17.9993243  99.5515007 100.7391955
  19.1727159 100.4633012 101.0284206  28.8727409  95.7507536 102.1774996
  27.9644286  95.6822945 101.8833757  28.8215004  96.2279481 103.0056822
  22.6944152  97.2265675  93.8158396  22.5743778  97.6722725  94.6543876
  21.9996741  97.5750992  93.2571934  20.4551045 109.9969316  97.4648527
  20.3775074 110.9477142  97.5437007  19.8512688 109.6515189  98.1223453
  30.7389055  93.9523975 103.9552870  30.0963435  94.2456508 103.3092665
  30.2343984  93.8376895 104.7606067  28.3929219  97.6987148  94.6438730
  29.3047075  97.9314535  94.4686427  27.8838866  98.2824192  94.0813808
  26.6769986 102.1211776 108.2800022  27.0853342 101.6794186 107.5354655
  25.9547248 101.5464403 108.5334215  23.0301056  97.0584382 105.6533579
  23.8762252  97.4823796 105.7968228  22.9699694  96.4018007 106.3472142
  26.9998801 102.6812966 102.0352311  26.3707663 102.8458680 101.3328379
  26.6124463 103.0954576 102.8063275  30.8788033 103.6167404  99.3896675
  30.1939071 103.9966306  98.8393708  30.9631882 104.2262731 100.1228623
  26.1800502  94.7188751 107.3114753  25.9361434  95.4730811 106.7749029
  26.4560432  95.0974098 108.1462000  28.1338964 101.2627363 105.9892018
  28.3455860 101.9059123 105.3126400  28.0868713 100.4289680 105.5213949
  25.7365193  93.8745184 102.8928591  24.8749672  94.1726437 103.1845328
  25.7627628  94.0915583 101.9609623  22.5526763 102.4187374  99.3002396
  23.0165108 102.6975077  98.5107019  22.2883561 101.5170819  99.1175487
  19.4450844 101.9658856 102.2382159  20.0152201 102.3946124 101.5999644
  20.0358956 101.6841441 102.9366345  21.4895649  98.5410527  96.1091961
  22.1919692  98.9931570  96.5765888  21.1576277  97.8994346  96.7371855
  15.2320983  96.7994079 101.4109095  14.4420037  97.0551608 100.9349206
  15.7232230  97.6142417 101.5161135  29.2484792 104.1399319 104.1614376
  30.0702236 103.7379506 103.8797057  29.2447195 104.0367553 105.1130492
  17.1835728  97.1638659  98.3692572  16.3866892  97.2757353  98.8876067
  16.9561320  97.5025311  97.5033462  37.3390785 100.4838067 100.5099347
  36.5854494  99.9145465 100.3543352  37.4738327 100.4500732 101.4569982
  22.7289414 105.3551469  96.1854067  22.5935088 106.2003005  96.6138914
  23.2699226 105.5570747  95.4220000  16.1818811 102.8726907  96.7581992
  16.6943331 103.6670158  96.9087556  16.8341524 102.1753198  96.6915593
  17.9913696 105.9892664  98.8404745  18.1680324 106.9110628  98.6525729
  18.7870529 105.6751083  99.2699125  22.1324714  92.8500928 110.4388678
  22.8734428  93.4508081 110.3593141  22.3642637  92.1078566 109.8806721
  26.0781877  88.8782031 104.7152960  25.7346146  89.7683673 104.6392071
  26.4460840  88.6883689 103.8522545  14.1467728 101.2015562  97.5341562
  14.9842950 101.6112570  97.3175270  14.3245995 100.2615004  97.5041756
  26.0432160  98.8690642  93.2225395  25.5278783  99.6395247  93.4613783
  25.7709468  98.1955779  93.8458457  23.6279271  93.7140343  98.2810634
  22.7720867  93.3247194  98.1016272  24.0406223  93.7932304  97.4210419
  25.1578417  91.2486686 102.6802193  24.6543213  91.2116822 101.8669999
  25.4509024  92.1579429 102.7398850  21.4021303  91.3325416 101.6868375
  22.2674300  91.1368225 101.3274265  21.4698812  91.1035768 102.6137732
  31.0166434 101.6222997  95.1578569  30.2395877 101.2834157  94.7133731
  31.6957915 101.6275620  94.4833534  25.8318463  96.7417734  95.0485176
  25.5268599  97.0563884  95.8995320  26.7848905  96.8199154  95.0912509
  24.2764895 102.9007958  96.6978130  23.7486256 102.1660717  96.3851368
  23.7752398 103.6782634  96.4518099  29.2557741 101.0956978 101.8145177
  28.5981415 101.7856240 101.9025305  30.0598140 101.4853410 102.1579163
  19.0083622  93.5627624  99.0584742  19.5827374  93.3402806  98.3257935
  19.5954605  93.6316319  99.8113343  28.0663200  99.4501351  99.8649118
  28.5795081 100.0831343 100.3670828  28.7164424  98.8502546  99.4992478
  19.3353210  95.5932085  93.0780627  18.4990522  95.9306772  93.3989902
  19.1957979  95.4581065  92.1407764  21.3106290  90.4368873  97.7859811
  20.6570702  90.1217890  97.1616426  21.2686764  89.8144613  98.5119634
  22.4217495 100.7188168  89.7013103  21.5144557 100.4877422  89.9004252
  22.9188527  99.9225787  89.8887085  25.3285574 109.4285675  92.6209790
  24.6547273 109.7317372  93.2294747  25.7151396 110.2314756  92.2715247
  24.5444031  96.9250807 102.1107459  23.6266592  97.1465754 101.9529147
  24.9604174  96.9997117 101.2519166  25.3279078  98.3242222  97.2410139
  26.0750897  98.8363619  96.9317261  25.5970668  98.0026275  98.1014533
  23.6005728 100.8200763  94.2237093  22.6916948 100.5359796  94.3209563
  23.6300812 101.2399842  93.3640400  28.8324996 104.4307352  97.9928261
  28.3787323 103.5898262  98.0493451  28.2018963 105.0668751  98.3303041
  27.7757915  95.3599338  99.2228928  27.0380672  94.8476725  99.5539171
  28.0284689  94.9199720  98.4112205  27.2757935 106.2683849  98.9278079
  27.5680909 106.8288906  98.2090445  27.7856556 106.5612410  99.6831238
  27.8769543  88.1375590  99.8170698  28.1828420  87.2772954  99.5296613
  28.6022148  88.7293211  99.6169692  14.1693899  98.5406277  98.2052296
  13.9718299  97.9475638  97.4803362  13.6140563  98.2358487  98.9228234
  22.1490622  98.4329384 100.3246889  22.2039232  97.4803220 100.2489365
  21.3381825  98.5888823 100.8088187  23.2981816 102.3609507  91.5625172
  22.8601246 101.6445366  91.1030809  24.0392257 102.5885621  91.0010263
  20.0882982  97.0506443  98.0837268  19.2750848  97.3500614  98.4902460
  20.5841977  96.6562132  98.8011750  22.2391560 107.0464200 100.0171532
  22.1967739 107.2725047  99.0880064  23.1554259 106.8127575 100.1657334
  25.6857194  97.5148268 106.9152162  26.0406582  97.7419741 107.7746627
  26.3329325  97.8466645 106.2929417  31.4154931 100.6366704  97.6201491
  31.2772830 100.8268300  96.6922680  31.0591150 101.3986086  98.0769542
  19.5797057  94.6224799 103.6998503  20.2196436  94.4813558 103.0021466
  18.7474588  94.3359312 103.3237105  31.4424311 102.7043231 102.6312762
  31.8760817 102.6118520 103.4795816  32.1555891 102.6800731 101.9932778
  20.3557361 103.9227229  99.8133495  21.1497960 103.4277549  99.6116070
  19.6449053 103.3945092  99.4501201  25.1752206 106.3045325 104.1645863
  25.2289228 106.8736261 104.9323579  24.3066987 106.4747210 103.7999900
  16.6640125  98.0670311  95.8893248  15.7337713  98.0054766  96.1063210
  16.7597597  97.5446264  95.0929889  16.5825674  94.5925124  98.4771489
  16.8432491  95.5070457  98.3680650  17.4042846  94.1249566  98.6268102
  32.3039860 102.7466931 105.1645648  32.4975750 103.6512742 105.4104922
  32.2040478 102.2874350 105.9984233  23.9576171  92.6324822 107.6635975
  23.3104086  93.3314772 107.5700451  24.7277186  93.0660966 108.0312223
  24.1340305 100.4705587 105.7232795  25.0632365 100.6216746 105.5501762
  23.7131335 100.5589608 104.8681441  22.9328637 104.4956251 103.4931332
  22.7939723 104.1275036 104.3657270  22.1443233 105.0103891 103.3215290
  23.5276789 109.5965348  94.8356869  23.7028545 109.1253391  95.6502491
  22.8409577 110.2231114  95.0638129  24.4833852 103.8737854 100.8820170
  24.1483685 103.8338624 101.7777820  23.9837798 103.2082570 100.4090580
  27.4193044 101.2193888  91.1557230  26.8022214 100.4940716  91.0590282
  26.9509532 101.9803249  90.8124304  29.0747176 105.9292797 108.8163010
  29.0159722 105.2452017 108.1493593  29.4766694 106.6711787 108.3643636
  19.2091590  95.4379313  90.2778534  18.3321056  95.3168113  89.9140781
  19.6849343  94.6465391  90.0257423  29.0764583 103.8932381 107.0476990
  28.1891362 103.5558302 107.1703389  29.6463134 103.1615412 107.2845755
  22.3955516 107.7905603  97.5241054  21.6123038 108.3327283  97.6179279
  23.0948261 108.3079583  97.9235296  25.7052166  93.6000232 100.1675260
  26.2020865  92.8470195  99.8476330  24.9339147  93.6364549  99.6018469
  33.5581923  99.3040598 101.8093551  33.5471800 100.1865313 101.4387484
  32.6899303  98.9512149 101.6148088  26.7881947 102.3571920  97.7413683
  25.8538225 102.4773382  97.5718388  26.9658615 101.4544386  97.4773693
  22.2887135  95.7417615  99.8946944  21.9184922  95.1888656 100.5827850
  22.7846227  95.1375749  99.3421944  30.1754498  98.1989239  98.2763717
  30.6414950  99.0317230  98.2024020  30.6261998  97.7334220  98.9808976
  28.2430729 104.5433060  95.2749869  28.5190573 104.4289655  96.1843743
  27.3735228 104.1450545  95.2362042  28.1471161  90.5669826 102.3154619
  27.2334240  90.7974053 102.4836826  28.5764262  90.6508270 103.1668651
  27.9177619  98.7559718 104.8154513  27.2649069  99.0035625 104.1606965
  28.2957999  97.9423856 104.4816990  24.8784793 108.7919411  98.9182683
  25.0607188 107.9741067  99.3810435  25.7017779 109.0087103  98.4807573
  25.2126959 107.7187596  96.1797731  25.7414725 107.2080051  95.5667894
  25.4755178 107.4030126  97.0443265  17.6852468  93.1521606 106.1400050
  17.7493795  94.0136437 105.7277448  17.6219589  92.5395608 105.4072409
  13.9370284  97.0321168  95.7191440  14.2323725  96.1231846  95.6658493
  13.0358319  97.0108907  95.3972442  25.8456362 108.7528432 102.5241848
  25.7207502 107.9518172 102.0152793  26.5035453 109.2474625 102.0355818
  17.4664531  95.1077164 101.7018988  16.7451116  95.7213132 101.5626461
  18.2557786  95.6434929 101.6235634  27.9091271 106.5537452 104.1521398
  26.9621606 106.4342803 104.0799725  28.2574044 105.6659950 104.2347659
  20.2690844  92.4431591 107.9759640  20.7925246  92.6893887 108.7385949
  20.0503177  93.2751626 107.5562777  15.6658125  94.7135265  95.8430765
  15.3370831  93.8332644  95.6605871  16.0197496  94.6582934  96.7307154
  24.9137704 106.3490168 100.3525750  24.7662666 105.4206876 100.5333320
  25.7391198 106.3710259  99.8682825  18.7799948  95.0008235  96.2106242
  19.1196021  95.5294157  95.4884851  19.2272069  95.3388641  96.9864809
  28.5171826 107.1718727 101.4390623  29.4418373 106.9661588 101.3015074
  28.3487129 106.9235128 102.3479964  21.4743389  93.3845286 105.6609310
  21.1340210  92.5853099 106.0629990  20.7682395  93.6846997 105.0886144
  22.1259861  90.4694598 104.1136633  22.9485930  89.9955077 103.9915524
  22.3697925  91.2485082 104.6135320  20.7668095  93.4982857  94.4099535
  21.4876458  93.8764110  93.9063252  20.1433400  94.2171734  94.5134513
  24.9099218  94.2028006  95.3457867  25.1262833  95.0852644  95.0446696
  24.4293286  93.8114219  94.6163509  19.6498440  97.1613719 101.9228612
  19.5043020  97.4754022 102.8152894  19.1723643  97.7798619 101.3699511
  21.5094823  94.1516267 101.9709502  21.4956391  93.2557360 101.6341800
  22.2267251  94.1586931 102.6047788  23.3620953  94.5853607 104.0162629
  23.1038731  95.5070678 104.0146959  22.8305994  94.1884042 104.7063093
  28.3067142 107.6904394  96.7952714  28.4804020 107.1250817  96.0426567
  28.7996033 108.4905289  96.6132204  20.9131719  93.0330647  97.2397072
  21.0347630  92.1047293  97.4387959  20.6233761  93.0469333  96.3275387
  23.7822909  90.7185558 100.3763792  23.8044606  90.7824891  99.4215771
  24.1990968  89.8790066 100.5704298  34.1606533 100.4540817  98.4143014
  34.6037679  99.7048143  98.0162137  33.2833044 100.4450954  98.0316746
  29.2942315 107.0071159  93.8949613  29.9893219 107.6277851  94.1136927
  29.6365465 106.1566510  94.1701991  31.1933738 104.4570864  95.4236944
  31.7185062 104.7958137  94.6986264  31.1056090 103.5217880  95.2400078
  22.8774398 110.5242848  99.7832197  22.4379389 110.0319226 100.4765053
  23.6282515 109.9815815  99.5424272  31.0025519 101.9396234 108.0420870
  31.0523524 101.7746242 108.9836393  30.8939442 101.0723493 107.6518751
  19.8861778 104.6184780  95.3312959  20.0349898 105.3020244  94.6779632
  20.6928221 104.5989870  95.8462415  28.2929281  97.9227162 109.3580177
  29.1939144  97.7833627 109.0664175  28.3677256  98.0881617 110.2978354
  22.6272087  95.2994017 108.2033363  21.7575396  95.5927583 107.9315952
  22.8631567  95.8834462 108.9240627  32.5043716 104.3593176 108.2862892
  32.2128524 104.7223156 109.1226353  31.8915847 103.6460184 108.1076224
  33.7039398 101.9246056 100.8065462  34.5386289 102.3635860 100.9703022
  33.8398527 101.4484709  99.9873708  30.7530904  99.4825790 106.7542950
  31.2285026  99.6753437 105.9461801  29.8296469  99.5384976 106.5086333
  17.6414411 100.6449958  96.3374028  17.3960452  99.7412288  96.5354238
  17.8110325 100.6467108  95.3953506  25.3311120  91.5173634 105.7198783
  25.8493064  92.2534661 105.3945272  24.9766253  91.8237627 106.5545543
  16.9110058  96.3778315  93.8360189  16.2179303  96.4522670  93.1800225
  16.6661810  95.6138659  94.3581706  25.5823715  87.9373917 101.2399680
  25.8625468  87.2697106 101.8660107  26.3674321  88.1303012 100.7274344
  23.3857183 107.1132910  92.8024706  22.8131150 107.7323098  92.3495178
  23.9589977 107.6632272  93.3364628  29.4532573  96.3591551 104.9871255
  30.4049996  96.4589648 105.0083479  29.2836023  95.5669819 105.4969339
  27.4746952  93.4447134 105.1730656  26.8796884  93.7252146 104.4777145
  27.1896649  93.9341035 105.9447397  26.6054443 107.3970061  93.9333289
  27.5385116 107.3315622  94.1366164  26.5177656 108.2326327  93.4747821
  29.2342460 106.7135931  90.8937236  29.1556091 106.3795795  91.7872994
  30.0552126 107.2057699  90.8928709  31.9320651  99.5797670 104.1013555
  31.8996971  98.6413671 104.2873239  32.5421274  99.6581707 103.3679380
  23.7703982  98.4493723  90.1440759  24.7163086  98.3199931  90.2129177
  23.3918227  97.7108385  90.6210187  32.0815139  96.3708714 104.1471838
  31.5654188  95.5867170 103.9601767  32.9655088  96.0427430 104.3118357
  29.7425866  90.1149729 100.1067651  29.5450687  89.8064817 100.9910983
  30.3525572  90.8411368 100.2365580  37.7497201 100.6413677 103.2419592
  38.4800589 100.3798965 103.8027295  37.1404146  99.9042399 103.2821660
  35.8312498  98.7821540 103.8394043  35.1045661  98.6477505 103.2310534
  35.4159785  99.0898368 104.6450761  21.9546899  96.3743700  90.0795644
  21.0478354  96.0776812  90.1558358  22.2322880  96.0773518  89.2129930
  23.5708964  90.9180589  96.2339885  22.7609693  90.5727674  96.6095131
  24.2593381  90.6088133  96.8227497  25.4999513  89.9958636  97.8564182
  26.0530551  90.4154090  98.5154205  25.7369599  89.0694384  97.8987138
  20.7245683  93.2330635  90.2207623  21.5864847  93.5585533  90.4803441
  20.9096027  92.4462131  89.7080689  28.8778320  92.1059161  97.3642846
  28.2976989  92.7643965  96.9820899  28.6114252  91.2836506  96.9530264
  27.3281886  91.5064219  99.5664167  27.8281665  91.6180754  98.7578485
  27.9717494  91.2025272 100.2064975  27.6603198  94.2659252  96.4199195
  26.7729053  94.5508902  96.2019389  28.0757187  94.1053015  95.5726471
  31.0117734  94.2905773 100.1353534  31.7878124  94.7802225 100.4078151
  30.2865868  94.7163827 100.5925403  33.4490293  95.0033392 101.1927474
  34.0434783  94.7629128 100.4820783  33.5216876  94.2840522 101.8201011
  26.8046411 104.0303926  90.5147214  27.5082261 104.2353929  91.1304870
  26.0809060 104.5980688  90.7796298  27.6344222  99.7813788  96.6349485
  27.5779423 100.2382339  95.7957117  28.1872564  99.0204472  96.4572327
  31.4449027  95.5703519  97.4599604  31.1885962  95.1700155  98.2907812
  30.8201896  96.2847313  97.3349743  35.7561365  98.3099593  99.9670896
  35.1960923  98.3792782 100.7402458  35.1504869  98.1340577  99.2470392
  28.7133109 104.4686456  92.5645675  29.5478713 104.0367654  92.3823149
  28.5517452 104.2968469  93.4922569  28.3679001 100.9718569  93.9302014
  28.3127805 100.8062840  92.9890458  27.7425056 101.6794602  94.0864204
  21.6775126  90.4726678  93.5087332  21.6653796  91.4168518  93.6655603
  22.5698548  90.2896823  93.2146793  25.4927246  87.0669454  97.7633269
  24.7259642  86.5127941  97.9089951  25.9037951  87.1391323  98.6247421
  37.3417384 114.9856107 102.6600851  37.9795794 114.8662854 101.9564191
  37.2238227 115.9336951 102.7188803  34.1507090 114.9383535 102.5962376
  33.8125602 114.8224599 101.7082911  35.0196858 114.5374700 102.5763382
  31.8515369 113.7071782  91.9279316  32.1040890 113.1853303  91.1662779
  30.9139929 113.5437928  92.0306000  36.8958652 112.7107560  99.7354059
  37.6821742 112.2926984  99.3844476  37.1597357 113.6153653  99.9035708
  42.2967079 112.6482794 100.6387038  43.0292251 112.0782010 100.8724867
  41.5406435 112.2604394 101.0793543  33.9143199 115.0710035  97.8350380
  33.5501406 114.5440656  98.5463302  34.7710315 114.6808504  97.6616866
  39.8192500 106.3604368 105.0981646  39.4875825 107.2299779 104.8742861
  39.2238113 106.0440652 105.7775677  33.5548686 110.0999935  92.8311729
  33.7223088 110.9680171  93.1982200  33.3645855 110.2627217  91.9073018
  39.7121163 111.0799454 102.1774996  38.8038040 111.0114862 101.8833757
  39.6608759 111.5571399 103.0056822  33.5337907 112.5557592  93.8158396
  33.4137532 113.0014643  94.6543876  32.8390495 112.9042910  93.2571934
  41.5782809 109.2815892 103.9552870  40.9357190 109.5748426 103.3092665
  41.0737738 109.1668813 104.7606067  39.2322973 113.0279066  94.6438730
  40.1440829 113.2606452  94.4686427  38.7232620 113.6116110  94.0813808
  37.5163741 117.4503693 108.2800022  37.9247097 117.0086104 107.5354655
  36.7941002 116.8756321 108.5334215  33.8694811 112.3876300 105.6533579
  34.7156006 112.8115714 105.7968228  33.8093449 111.7309924 106.3472142
  37.0194256 110.0480669 107.3114753  36.7755188 110.8022729 106.7749029
  37.2954187 110.4266016 108.1462000  38.9732719 116.5919281 105.9892018
  39.1849614 117.2351041 105.3126400  38.9262467 115.7581597 105.5213949
  36.5758948 109.2037102 102.8928591  35.7143427 109.5018355 103.1845328
  36.6021383 109.4207500 101.9609623  32.3289403 113.8702444  96.1091961
  33.0313447 114.3223488  96.5765888  31.9970032 113.2286263  96.7371855
  26.0714737 112.1285997 101.4109095  25.2813791 112.3843526 100.9349206
  26.5625985 112.9434335 101.5161135  28.0229483 112.4930576  98.3692572
  27.2260646 112.6049271  98.8876067  27.7955075 112.8317229  97.5033462
  48.1784540 115.8129985 100.5099347  47.4248248 115.2437383 100.3543352
  48.3132081 115.7792649 101.4569982  32.9718469 108.1792846 110.4388678
  33.7128182 108.7799999 110.3593141  33.2036391 107.4370484 109.8806721
  36.9175632 104.2073949 104.7152960  36.5739901 105.0975591 104.6392071
  37.2854594 104.0175607 103.8522545  36.8825914 114.1982560  93.2225395
  36.3672538 114.9687165  93.4613783  36.6103223 113.5247696  93.8458457
  34.4673025 109.0432261  98.2810634  33.6114622 108.6539111  98.1016272
  34.8799977 109.1224222  97.4210419  35.9972172 106.5778604 102.6802193
  35.4936968 106.5408739 101.8669999  36.2902779 107.4871347 102.7398850
  32.2415058 106.6617334 101.6868375  33.1068055 106.4660143 101.3274265
  32.3092567 106.4327686 102.6137732  41.8560188 116.9514915  95.1578569
  41.0789631 116.6126074  94.7133731  42.5351669 116.9567538  94.4833534
  36.6712217 112.0709652  95.0485176  36.3662353 112.3855801  95.8995320
  37.6242660 112.1491072  95.0912509  40.0951495 116.4248896 101.8145177
  39.4375170 117.1148157 101.9025305  40.8991895 116.8145328 102.1579163
  29.8477377 108.8919542  99.0584742  30.4221129 108.6694723  98.3257935
  30.4348359 108.9608236  99.8113343  38.9056954 114.7793269  99.8649118
  39.4188836 115.4123261 100.3670828  39.5558178 114.1794464  99.4992478
  30.1746964 110.9224003  93.0780627  29.3384276 111.2598689  93.3989902
  30.0351734 110.7872983  92.1407764  32.1500045 105.7660791  97.7859811
  31.4964457 105.4509808  97.1616426  32.1080519 105.1436531  98.5119634
  33.2611249 116.0480086  89.7013103  32.3538311 115.8169339  89.9004252
  33.7582281 115.2517705  89.8887085  35.3837785 112.2542724 102.1107459
  34.4660346 112.4757671 101.9529147  35.7997929 112.3289035 101.2519166
  36.1672833 113.6534140  97.2410139  36.9144652 114.1655537  96.9317261
  36.4364422 113.3318193  98.1014533  34.4399483 116.1492681  94.2237093
  33.5310702 115.8651713  94.3209563  34.4694567 116.5691759  93.3640400
  38.6151670 110.6891256  99.2228928  37.8774427 110.1768642  99.5539171
  38.8678443 110.2491638  98.4112205  38.7163297 103.4667508  99.8170698
  39.0222174 102.6064872  99.5296613  39.4415902 104.0585128  99.6169692
  32.9884377 113.7621301 100.3246889  33.0432987 112.8095138 100.2489365
  32.1775579 113.9180740 100.8088187  30.9276737 112.3798361  98.0837268
  30.1144602 112.6792532  98.4902460  31.4235731 111.9854050  98.8011750
  36.5250949 112.8440185 106.9152162  36.8800336 113.0711659 107.7746627
  37.1723080 113.1758562 106.2929417  42.2548686 115.9658621  97.6201491
  42.1166584 116.1560217  96.6922680  41.8984904 116.7278004  98.0769542
  30.4190812 109.9516716 103.6998503  31.0590191 109.8105476 103.0021466
  29.5868342 109.6651230 103.3237105  42.2818065 118.0335148 102.6312762
  42.7154572 117.9410437 103.4795816  42.9949646 118.0092649 101.9932778
  27.5033879 113.3962229  95.8893248  26.5731467 113.3346684  96.1063210
  27.5991351 112.8738181  95.0929889  27.4219428 109.9217041  98.4771489
  27.6826245 110.8362375  98.3680650  28.2436600 109.4541484  98.6268102
  43.1433615 118.0758849 105.1645648  43.3369505 118.9804659 105.4104922
  43.0434233 117.6166268 105.9984233  34.7969925 107.9616740 107.6635975
  34.1497840 108.6606689 107.5700451  35.5670941 108.3952883 108.0312223
  34.9734060 115.7997504 105.7232795  35.9026120 115.9508664 105.5501762
  34.5525090 115.8881525 104.8681441  38.2586798 116.5485806  91.1557230
  37.6415969 115.8232634  91.0590282  37.7903287 117.3095166  90.8124304
  30.0485344 110.7671230  90.2778534  29.1714811 110.6460031  89.9140781
  30.5243097 109.9757309  90.0257423  36.5445920 108.9292150 100.1675260
  37.0414620 108.1762112  99.8476330  35.7732902 108.9656467  99.6018469
  44.3975678 114.6332516 101.8093551  44.3865554 115.5157231 101.4387484
  43.5293057 114.2804066 101.6148088  33.1280889 111.0709533  99.8946944
  32.7578677 110.5180573 100.5827850  33.6239982 110.4667667  99.3421944
  41.0148252 113.5281157  98.2763717  41.4808705 114.3609148  98.2024020
  41.4655753 113.0626138  98.9808976  38.9864915 105.8961744 102.3154619
  38.0727995 106.1265970 102.4836826  39.4158017 105.9800188 103.1668651
  38.7571374 114.0851636 104.8154513  38.1042824 114.3327543 104.1606965
  39.1351754 113.2715774 104.4816990  28.5246223 108.4813524 106.1400050
  28.5887549 109.3428355 105.7277448  28.4613343 107.8687525 105.4072409
  24.7764038 112.3613085  95.7191440  25.0717479 111.4523764  95.6658493
  23.8752074 112.3400825  95.3972442  28.3058285 110.4369082 101.7018988
  27.5844871 111.0505050 101.5626461  29.0951541 110.9726847 101.6235634
  31.1084599 107.7723509 107.9759640  31.6319000 108.0185805 108.7385949
  30.8896932 108.6043543 107.5562777  26.5051880 110.0427183  95.8430765
  26.1764586 109.1624562  95.6605871  26.8591250 109.9874852  96.7307154
  29.6193703 110.3300153  96.2106242  29.9589775 110.8586074  95.4884851
  30.0665823 110.6680559  96.9864809  32.3137144 108.7137204 105.6609310
  31.9733964 107.9145017 106.0629990  31.6076150 109.0138915 105.0886144
  32.9653615 105.7986516 104.1136633  33.7879685 105.3246994 103.9915524
  33.2091679 106.5777000 104.6135320  31.6061850 108.8274775  94.4099535
  32.3270212 109.2056027  93.9063252  30.9827154 109.5463651  94.5134513
  35.7492973 109.5319923  95.3457867  35.9656587 110.4144561  95.0446696
  35.2687040 109.1406137  94.6163509  30.4892194 112.4905637 101.9228612
  30.3436775 112.8045940 102.8152894  30.0117398 113.1090537 101.3699511
  32.3488577 109.4808185 101.9709502  32.3350146 108.5849278 101.6341800
  33.0661005 109.4878848 102.6047788  34.2014708 109.9145525 104.0162629
  33.9432486 110.8362596 104.0146959  33.6699748 109.5175959 104.7063093
  31.7525473 108.3622565  97.2397072  31.8741384 107.4339211  97.4387959
  31.4627515 108.3761251  96.3275387  34.6216663 106.0477475 100.3763792
  34.6438360 106.1116809  99.4215771  35.0384722 105.2081984 100.5704298
  45.0000288 115.7832735  98.4143014  45.4431434 115.0340060  98.0162137
  44.1226798 115.7742871  98.0316746  41.8419273 117.2688152 108.0420870
  41.8917278 117.1038159 108.9836393  41.7333197 116.4015411 107.6518751
  39.1323036 113.2519080 109.3580177  40.0332898 113.1125545 109.0664175
  39.2071010 113.4173535 110.2978354  33.4665841 110.6285935 108.2033363
  32.5969150 110.9219501 107.9315952  33.7025321 111.2126380 108.9240627
  44.5433152 117.2537973 100.8065462  45.3780044 117.6927777 100.9703022
  44.6792281 116.7776626  99.9873708  41.5924658 114.8117708 106.7542950
  42.0678780 115.0045354 105.9461801  40.6690224 114.8676894 106.5086333
  36.1704875 106.8465552 105.7198783  36.6886819 107.5826579 105.3945272
  35.8160008 107.1529545 106.5545543  27.7503813 111.7070233  93.8360189
  27.0573057 111.7814588  93.1800225  27.5055564 110.9430577  94.3581706
  36.4217469 103.2665834 101.2399680  36.7019223 102.5989023 101.8660107
  37.2068076 103.4594930 100.7274344  40.2926327 111.6883468 104.9871255
  41.2443750 111.7881566 105.0083479  40.1229778 110.8961737 105.4969339
  38.3140707 108.7739051 105.1730656  37.7190639 109.0544064 104.4777145
  38.0290404 109.2632952 105.9447397  42.7714405 114.9089588 104.1013555
  42.7390725 113.9705589 104.2873239  43.3815029 114.9873625 103.3679380
  34.6097736 113.7785641  90.1440759  35.5556841 113.6491849  90.2129177
  34.2311981 113.0400303  90.6210187  42.9208894 111.7000631 104.1471838
  42.4047942 110.9159088 103.9601767  43.8048842 111.3719348 104.3118357
  40.5819621 105.4441647 100.1067651  40.3844442 105.1356735 100.9910983
  41.1919326 106.1703286 100.2365580  48.5890955 115.9705595 103.2419592
  49.3194344 115.7090883 103.8027295  47.9797901 115.2334317 103.2821660
  46.6706252 114.1113457 103.8394043  45.9439416 113.9769422 103.2310534
  46.2553539 114.4190286 104.6450761  32.7940653 111.7035617  90.0795644
  31.8872109 111.4068730  90.1558358  33.0716634 111.4065435  89.2129930
  34.4102719 106.2472507  96.2339885  33.6003447 105.9019592  96.6095131
  35.0987136 105.9380051  96.8227497  36.3393267 105.3250554  97.8564182
  36.8924306 105.7446007  98.5154205  36.5763354 104.3986302  97.8987138
  31.5639438 108.5622552  90.2207623  32.4258602 108.8877451  90.4803441
  31.7489782 107.7754048  89.7080689  39.7172074 107.4351079  97.3642846
  39.1370743 108.0935883  96.9820899  39.4508007 106.6128424  96.9530264
  38.1675641 106.8356137  99.5664167  38.6675419 106.9472671  98.7578485
  38.8111249 106.5317189 100.2064975  38.4996952 109.5951169  96.4199195
  37.6122807 109.8800820  96.2019389  38.9150941 109.4344933  95.5726471
  41.8511488 109.6197690 100.1353534  42.6271879 110.1094143 100.4078151
  41.1259623 110.0455744 100.5925403  44.2884047 110.3325310 101.1927474
  44.8828538 110.0921045 100.4820783  44.3610631 109.6132440 101.8201011
  38.4737976 115.1105705  96.6349485  38.4173177 115.5674257  95.7957117
  39.0266319 114.3496390  96.4572327  42.2842782 110.8995437  97.4599604
  42.0279716 110.4992073  98.2907812  41.6595650 111.6139231  97.3349743
  46.5955120 113.6391510  99.9670896  46.0354678 113.7084700 100.7402458
  45.9898623 113.4632495  99.2470392  39.2072755 116.3010487  93.9302014
  39.1521559 116.1354758  92.9890458  38.5818811 117.0086519  94.0864204
  32.5168881 105.8018596  93.5087332  32.5047551 106.7460435  93.6655603
  33.4092303 105.6188741  93.2146793  36.3321000 102.3961372  97.7633269
  35.5653396 101.8419859  97.9089951  36.7431705 102.4683241  98.6247421
  47.7569386 119.5365867 104.7152960  47.4133655 120.4267508 104.6392071
  48.1248349 119.3467524 103.8522545  49.5557052 118.7959426  99.8170698
  49.8615929 117.9356789  99.5296613  50.2809657 119.3877046  99.6169692
  49.8258670 121.2253661 102.3154619  48.9121749 121.4557888 102.4836826
  50.2551771 121.3092105 103.1668651  47.2611224 118.5957752 101.2399680
  47.5412977 117.9280941 101.8660107  48.0461830 118.7886848 100.7274344
  51.4213375 120.7733565 100.1067651  51.2238196 120.4648653 100.9910983
  52.0313081 121.4995203 100.2365580  47.1787022 120.6542471  97.8564182
  47.7318060 121.0737925  98.5154205  47.4157108 119.7278220  97.8987138
  47.1714755 117.7253290  97.7633269  46.4047151 117.1711777  97.9089951
  47.5825460 117.7975159  98.6247421   4.8209523  31.5024437  87.2344654
   4.0673232  30.9331835  87.0788658   4.9557064  31.4687101  88.1815289
   1.6425271  31.4727187  85.1388321   2.0856417  30.7234512  84.7407444
   0.7651781  31.4637323  84.7562053   1.1858136  32.9432425  87.5310768
   2.0205027  33.3822229  87.6948329   1.3217265  32.4671078  86.7119014
   5.2315938  31.6600047  89.9664898   5.9619327  31.3985335  90.5272602
   4.6222884  30.9228769  90.0066966   3.3131235  29.8007909  90.5639349
   2.5864399  29.6663874  89.9555841   2.8978522  30.1084738  91.3696067
   0.9309030  26.0219761  87.9172781   1.5253521  25.7815497  87.2066089
   1.0035614  25.3026892  88.5446317   3.2380103  29.3285962  86.6916202
   2.6779661  29.3979152  87.4647764   2.6323606  29.1526947  85.9715698
   4.8236122  46.0042476  89.3846158   5.4614532  45.8849224  88.6809498
   4.7056964  46.9523320  89.4434110   1.6325828  45.9569904  89.3207683
   1.2944339  45.8410969  88.4328217   2.5015596  45.5561069  89.3008689
   2.1145611  47.1104756  95.2793888   2.1034252  46.7157554  94.4074392
   2.2766250  46.3770829  95.8727660   3.0712202  51.4776348  80.6219038
   2.4200182  52.0630429  80.2353052   3.8656565  52.0082543  80.6814076
   4.3777390  43.7293930  86.4599366   5.1640479  43.3113353  86.1089783
   4.6416094  44.6340022  86.6281014   4.5487467  49.1666780  81.1588023
   3.9133300  49.2401407  81.8708927   4.2184874  49.7560379  80.4807102
   9.7785817  43.6669163  87.3632344  10.5110989  43.0968380  87.5970174
   9.0225173  43.2790764  87.8038850   1.3961937  46.0896405  84.5595687
   1.0320144  45.5627026  85.2708608   2.2529053  45.6994874  84.3862172
   7.3011238  37.3790737  91.8226953   6.9694562  38.2486148  91.5988168
   6.7056851  37.0627021  92.5020983   1.0367424  41.1186304  79.5557035
   1.2041826  41.9866541  79.9227507   0.8464593  41.2813586  78.6318325
   3.7942757  49.5803283  91.2222866   3.4943480  50.4828322  91.1138673
   3.4493817  49.3135467  92.0744019   7.1939901  42.0985824  88.9020303
   6.2856778  42.0301232  88.6079064   7.1427497  42.5757768  89.7302129
   1.2680767  43.5175469  96.8455200   0.4914101  44.0769389  96.8358065
   1.9071330  44.0032252  97.3670071   9.0601547  40.3002262  90.6798177
   8.4175928  40.5934795  90.0337972   8.5556476  40.1855182  91.4851374
   6.7141711  44.0465435  81.3684036   7.6259567  44.2792822  81.1931734
   6.2051358  44.6302479  80.8059115   4.9982479  48.4690063  95.0045329
   5.4065835  48.0272473  94.2599961   4.2759740  47.8942690  95.2579522
   1.3513549  43.4062670  92.3778886   2.1974744  43.8302083  92.5213535
   1.2912186  42.7496294  93.0717449   5.3211293  49.0291254  88.7597618
   4.6920156  49.1936968  88.0573686   4.9336955  49.4432863  89.5308582
   9.2000525  49.9645691  86.1141982   8.5151563  50.3444593  85.5639015
   9.2844374  50.5741018  86.8473929   4.5012994  41.0667038  94.0360059
   4.2573926  41.8209099  93.4994335   4.7772924  41.4452386  94.8707307
   6.4551457  47.6105650  92.7137325   6.6668352  48.2537410  92.0371706
   6.4081205  46.7767967  92.2459255   4.0577686  40.2223471  89.6173897
   3.1962165  40.5204725  89.9090635   4.0840120  40.4393870  88.6854930
   0.8739255  48.7665662  86.0247703   1.3377601  49.0453365  85.2352325
   0.6096053  47.8649106  85.8420794   7.5697285  50.4877606  90.8859682
   8.3914728  50.0857793  90.6042364   7.5659688  50.3845840  91.8375798
   1.3353888  50.0361649  93.0420393   1.3998321  50.4982056  93.8778565
   0.6264812  49.4059014  93.1702703  15.6603278  46.8316354  87.2344654
  14.9066986  46.2623752  87.0788658  15.7950819  46.7979019  88.1815289
   1.0501906  51.7029757  82.9099373   0.9147581  52.5481292  83.3384221
   1.5911718  51.9049034  82.1465307   2.6770382  52.3253323  97.0399715
   2.2334236  51.5389702  96.7220620   3.3387596  52.5132474  96.3743606
   4.7751620  52.6056123  95.0681117   4.7570096  53.4265004  94.5761386
   5.6971540  52.4810198  95.2931258   1.2324674  50.1200253  95.9104625
   1.7653011  49.3588541  95.6803933   0.7038755  49.8273904  96.6528779
   4.3994369  35.2260319  91.4398267   4.0558639  36.1161960  91.3637377
   4.7673332  35.0361976  90.5767852   4.3644652  45.2168930  79.9470702
   3.8491276  45.9873534  80.1859089   4.0921961  44.5434066  80.5703763
   1.9491763  40.0618630  85.0055940   1.0933359  39.6725481  84.8261579
   2.3618715  40.1410591  84.1455726   3.4790910  37.5964974  89.4047500
   2.9755705  37.5595109  88.5915305   3.7721517  38.5057716  89.4644157
   9.3378926  47.9701284  81.8823875   8.5608369  47.6312444  81.4379037
  10.0170407  47.9753907  81.2078840   4.1530955  43.0896022  81.7730483
   3.8481091  43.4042171  82.6240626   5.1061397  43.1677442  81.8157816
   2.5977387  49.2486245  83.4223437   2.0698749  48.5139005  83.1096674
   2.0964890  50.0260921  83.1763405   7.5770233  47.4435266  88.5390483
   6.9193908  48.1334527  88.6270612   8.3810632  47.8331697  88.8824470
   6.3875692  45.7979638  86.5894425   6.9007574  46.4309630  87.0916135
   7.0376916  45.1980834  86.2237785   3.6498066  55.7763963  79.3455096
   2.9759765  56.0795659  79.9540054   4.0363888  56.5793043  78.9960553
   2.8656523  43.2729094  88.8352766   1.9479084  43.4944041  88.6774454
   3.2816666  43.3475404  87.9764473   3.6491571  44.6720509  83.9655446
   4.3963389  45.1841907  83.6562568   3.9183160  44.3504562  84.8259839
   1.9218221  47.1679050  80.9482400   1.0129440  46.8838083  81.0454870
   1.9513305  47.5878129  80.0885707   7.1537488  50.7785640  84.7173568
   6.6999815  49.9376550  84.7738758   6.5231455  51.4147038  85.0548348
   6.0970408  41.7077626  85.9474235   5.3593164  41.1955012  86.2784478
   6.3497181  41.2678007  85.1357512   5.5970427  52.6162136  85.6523386
   5.8893402  53.1767193  84.9335751   6.1069048  52.9090697  86.4076545
   6.1982035  34.4853878  86.5416004   6.5040912  33.6251241  86.2541919
   6.9234640  35.0771498  86.3414998   1.6194309  48.7087794  78.2870479
   1.1813738  47.9923653  77.8276116   2.3604749  48.9363909  77.7255570
   0.5604053  53.3942487  86.7416839   0.5180231  53.6203334  85.8125371
   1.4766751  53.1605862  86.8902640   4.0069686  43.8626555  93.6397468
   4.3619074  44.0898028  94.4991934   4.6541818  44.1944932  93.0174724
   9.7367423  46.9844991  84.3446797   9.5985322  47.1746587  83.4167986
   9.3803642  47.7464374  84.8014848   9.7636803  49.0521518  89.3558069
  10.1973310  48.9596807  90.2041123  10.4768384  49.0279018  88.7178085
   3.4964698  52.6523612  90.8891169   3.5501720  53.2214548  91.6568885
   2.6279479  52.8225497  90.5245206  10.6252352  49.0945219  91.8890954
  10.8188243  49.9991029  92.1350229  10.5252971  48.6352638  92.7229539
   2.2788663  38.9803109  94.3881281   1.6316578  39.6793059  94.2945758
   3.0489679  39.4139253  94.7557530   5.6867461  49.2451961  97.4631835
   5.5352968  49.0162513  96.5461918   5.6772141  50.2022563  97.4763180
   2.4552798  46.8183874  92.4478101   3.3844858  46.9695034  92.2747069
   2.0343828  46.9067895  91.5926748   1.8489281  55.9443635  81.5602175
   2.0241037  55.4731678  82.3747798   1.1622069  56.5709401  81.7883436
   2.8046344  50.2216141  87.6065477   2.4696177  50.1816911  88.5023127
   2.3050290  49.5560857  87.1335887   5.7405536  47.5672175  77.8802536
   5.1234707  46.8419004  77.7835589   5.2722025  48.3281536  77.5369611
   7.3959668  52.2771084  95.5408317   7.3372214  51.5930304  94.8738900
   7.7979186  53.0190074  95.0888943   7.3977075  50.2410668  93.7722296
   6.5103854  49.9036590  93.8948695   7.9675626  49.5093699  94.0091062
   0.9278228  54.9012120  90.7383540   0.8548400  55.7067092  91.2502844
   0.4855622  55.1004086  89.9131561   4.0264658  39.9478520  86.8920566
   4.5233358  39.1948482  86.5721637   3.2551640  39.9842836  86.3263776
  11.8794416  45.6518885  88.5338858  11.8684292  46.5343601  88.1632791
  11.0111795  45.2990436  88.3393395   3.3876912  54.7998954  92.8941698
   4.1004884  55.4346419  92.8217600   2.8966941  54.8962820  92.0781700
   5.1094439  48.7050207  84.4658990   4.1750718  48.8251669  84.2963694
   5.2871107  47.8022674  84.2019000   8.4966990  44.5467526  85.0009024
   8.9627442  45.3795518  84.9269327   8.9474491  44.0812508  85.7054282
   6.5643221  50.8911347  81.9995176   6.8403065  50.7767942  82.9089050
   5.6947720  50.4928832  81.9607349   6.4683653  36.9148113  89.0399925
   5.5546733  37.1452340  89.2082132   6.8976754  36.9986557  89.8913958
   6.2390111  45.1038005  91.5399819   5.5861562  45.3513913  90.8852272
   6.6170491  44.2902143  91.2062297   3.1997285  55.1397698  85.6427990
   3.3819680  54.3219354  86.1055742   4.0230271  55.3565391  85.2052880
   3.5339451  54.0665883  82.9043038   4.0627217  53.5558338  82.2913200
   3.7967670  53.7508414  83.7688571   2.2877684  45.8457816  98.0265856
   1.6118322  45.7451945  98.6968232   3.1105318  45.6897030  98.4901854
   1.0300467  57.1524744  92.2623472   1.5818775  57.3156365  93.0272558
   1.3706661  57.7429181  91.5903497   5.8811342  51.9786001  98.1172127
   6.4251246  52.5915959  97.6227082   5.2998187  52.5365580  98.6339140
   4.1668855  55.1006719  89.2487155   4.0419994  54.2996459  88.7398100
   4.8247946  55.5952912  88.7601125   6.2303763  52.9015739  90.8766705
   5.2834099  52.7821090  90.8045031   6.5786536  52.0138237  90.9592966
   3.2350196  52.6968455  87.0771057   3.0875159  51.7685163  87.2578627
   4.0603690  52.7188546  86.5928132   6.8384318  53.5197014  88.1635930
   7.7630866  53.3139875  88.0260381   6.6699622  53.2713415  89.0725271
   3.2311711  40.5506293  82.0703174   3.4475325  41.4330931  81.7692002
   2.7505778  40.1592506  81.3408816   1.6833446  40.9331894  90.7407936
   1.4251223  41.8548965  90.7392266   1.1518486  40.5362329  91.4308400
   6.6279634  54.0382682  83.5198021   6.8016512  53.4729104  82.7671874
   7.1208526  54.8383576  83.3377511   2.1035401  37.0663845  87.1009098
   2.1257098  37.1303178  86.1461078   2.5203460  36.2268354  87.2949604
  12.4819026  46.8019105  85.1388321  12.9250172  46.0526430  84.7407444
  11.6045536  46.7929241  84.7562053   7.6154807  53.3549446  80.6194919
   8.3105712  53.9756139  80.8382234   7.9577957  52.5044797  80.8947297
   9.5146230  50.8049152  82.1482250  10.0397554  51.1436424  81.4231570
   9.4268583  49.8696167  81.9645385   1.1766279  54.7183225  94.2772127
   1.4853405  54.4732372  95.1494826   1.9741761  54.9229864  93.7890997
   1.1986891  56.8721135  86.5077503   0.7591881  56.3797514  87.2010360
   1.9495008  56.3294102  86.2669579   9.2040136  51.4382055  97.4533448
   8.4135680  51.4206194  96.9137948   8.9673491  51.9770349  98.2082485
   9.3238011  48.2874522  94.7666177   9.3736016  48.1224529  95.7081699
   9.2151934  47.4201781  94.3764057   6.6141774  44.2705450  96.0825483
   7.5151636  44.1311914  95.7909481   6.6889748  44.4359904  97.0223661
  10.8256208  50.7071463  95.0108198  10.5341016  51.0701444  95.8471659
  10.2128339  49.9938471  94.8321530  12.0251890  48.2724343  87.5310768
  12.8598782  48.7114147  87.6948329  12.1611019  47.7962996  86.7119014
   9.0743396  45.8304078  93.4788256   9.5497518  46.0231724  92.6707108
   8.1508962  45.8863264  93.2331640   3.6523613  37.8651921  92.4444090
   4.1705557  38.6012948  92.1190579   3.2978745  38.1715915  93.2790849
   3.9036207  34.2852204  87.9644987   4.1837961  33.6175393  88.5905413
   4.6886814  34.4781299  87.4519650   1.7069675  53.4611198  79.5270013
   1.1343642  54.0801385  79.0740485   2.2802469  54.0110559  80.0609935
   7.7745065  42.7069838  91.7116562   8.7262488  42.8067935  91.7328786
   7.6048516  41.9148106  92.2214646   5.7959445  39.7925421  91.8975963
   5.2009377  40.0730434  91.2022451   5.5109141  40.2819322  92.6692704
   4.9266935  53.7448348  80.6578595   5.8597608  53.6793909  80.8611471
   4.8390148  54.5804615  80.1993128   7.5554952  53.0614218  77.6182543
   7.4768583  52.7274082  78.5118301   8.3764619  53.5535986  77.6174015
  10.2533143  45.9275957  90.8258861  10.2209463  44.9891958  91.0118545
  10.8633767  46.0059994  90.0924686   2.0916474  44.7972010  76.8686065
   3.0375579  44.6678219  76.9374484   1.7130719  44.0586672  77.3455494
  10.4027631  42.7187001  90.8717145   9.8866680  41.9345458  90.6847073
  11.2867580  42.3905718  91.0363664   8.0638358  36.4628016  86.8312957
   7.8663180  36.1543105  87.7156289   8.6738064  37.1889655  86.9610887
  16.0709693  46.9891964  89.9664898  16.8013081  46.7277252  90.5272602
  15.4616638  46.2520686  90.0066966  14.1524990  45.1299827  90.5639349
  13.4258154  44.9955792  89.9555841  13.7372277  45.4376656  91.3696067
   1.9755166  48.8489757  98.3286722   2.8958176  49.0268356  98.5226769
   1.9404749  47.9045802  98.1766422   1.8921457  37.2658877  82.9585192
   1.0822185  36.9205962  83.3340438   2.5805874  36.9566420  83.5472804
   3.8212005  36.3436923  84.5809489   4.3743044  36.7632377  85.2399512
   4.0582091  35.4172671  84.6232445   7.1990812  38.4537449  84.0888153
   6.6189481  39.1122253  83.7066205   6.9326745  37.6314793  83.6775570
   5.6494378  37.8542506  86.2909473   6.1494157  37.9659041  85.4823792
   6.2929986  37.5503559  86.9310282   5.9815690  40.6137539  83.1444501
   5.0941545  40.8987190  82.9264696   6.3969679  40.4531302  82.2971778
   9.3330226  40.6384060  86.8598840  10.1090616  41.1280512  87.1323457
   8.6078360  41.0642114  87.3170710  11.7702785  41.3511679  87.9172781
  12.3647276  41.1107415  87.2066089  11.8429369  40.6318810  88.5446317
   5.1258904  50.3782214  77.2392521   5.8294754  50.5832216  77.8550177
   4.4021552  50.9458975  77.5041605   5.9556714  46.1292075  83.3594791
   5.8991915  46.5860626  82.5202424   6.5085056  45.3682759  83.1817634
   9.7661520  41.9181807  84.1844911   9.5098454  41.5178442  85.0153118
   9.1414388  42.6325601  84.0595050  14.0773858  44.6577880  86.6916202
  13.5173416  44.7271069  87.4647764  13.4717361  44.4818865  85.9715698
   7.0345601  50.8164743  79.2890981   7.8691205  50.3845941  79.1068456
   6.8729944  50.6446756  80.2167876   6.6891493  47.3196856  80.6547321
   6.6340297  47.1541128  79.7135765   6.0637548  48.0272889  80.8109510
   4.0037400  49.6245768  99.9800883   4.8728560  49.7986420  99.6187518
   3.5244152  50.4440185  99.8576613   3.8139738  33.4147742  84.4878576
   3.0472134  32.8606228  84.6335258   4.2250443  33.4869610  85.3492727
  15.6629876  61.3334394  89.3846158  16.3008286  61.2141141  88.6809498
  15.5450719  62.2815238  89.4434110  12.4719582  61.2861822  89.3207683
  12.1338094  61.1702887  88.4328217  13.3409351  60.8852987  89.3008689
   8.3306398  63.1397298  85.3104574   7.7671263  63.0487235  84.5420861
   8.2158793  62.3197203  85.7907066  12.9539365  62.4396674  95.2793888
  12.9428006  62.0449472  94.4074392  13.1160005  61.7062746  95.8727660
   5.8770830  64.6348490  88.1488794   6.6692122  64.2939315  87.7335093
   6.1167480  64.7443465  89.0690947  13.9105957  66.8068266  80.6219038
  13.2593937  67.3922347  80.2353052  14.7050320  67.3374461  80.6814076
   7.8361584  63.8957403  81.0206173   8.6092460  63.3486390  80.8819049
   8.1886983  64.7601653  81.2320634   9.6746626  65.2233786  94.2273072
   9.3836492  66.1279416  94.1119738  10.3103611  65.2650313  94.9417142
  10.6002833  62.6010634  90.8174432  11.1966406  62.3766656  90.1031395
  10.6577805  61.8595380  91.4199880  10.1727862  60.0550069  78.6524623
  10.4253382  59.5331591  77.8908086   9.2352421  59.8916215  78.7551306
  15.2171145  59.0585848  86.4599366  16.0034234  58.6405271  86.1089783
  15.4809849  59.9631940  86.6281014  15.3881222  64.4958698  81.1588023
  14.7527055  64.5693325  81.8708927  15.0578628  65.0852297  80.4807102
  20.6179572  58.9961081  87.3632344  21.3504744  58.4260298  87.5970174
  19.8618927  58.6082681  87.8038850   9.8924150  61.9578175  80.8548998
   9.7760409  61.2823079  81.5230082  10.0026410  61.4710549  80.0381151
  12.2355691  61.4188322  84.5595687  11.8713899  60.8918943  85.2708608
  13.0922807  61.0286791  84.3862172  18.1404992  52.7082655  91.8226953
  17.8088317  53.5778066  91.5988168  17.5450605  52.3918939  92.5020983
  11.8761178  56.4478222  79.5557035  12.0435581  57.3158459  79.9227507
  11.6858347  56.6105504  78.6318325  14.6336512  64.9095201  91.2222866
  14.3337235  65.8120240  91.1138673  14.2887571  64.6427384  92.0744019
   8.0848993  61.3608998  87.2559570   7.1599490  61.2285212  87.4637262
   8.3333406  62.1403217  87.7529513  18.0333655  57.4277741  88.9020303
  17.1250533  57.3593150  88.6079064  17.9821251  57.9049686  89.7302129
  11.8550399  58.9035880  80.5403702  11.7350024  59.3492930  81.3789183
  11.1602988  59.2521197  79.9817240   5.4457804  61.0042271  88.0903359
   5.5750185  61.2576750  89.0042771   4.7655255  61.5969979  87.7708014
   9.6157291  71.6739521  84.1893834   9.5381321  72.6247346  84.2682314
   9.0118935  71.3285394  84.8468760  12.1074521  58.8467387  96.8455200
  11.3307855  59.4061307  96.8358065  12.7465084  59.3324170  97.3670071
  19.8995302  55.6294180  90.6798177  19.2569682  55.9226713  90.0337972
  19.3950230  55.5147100  91.4851374  17.5535465  59.3757353  81.3684036
  18.4653322  59.6084740  81.1931734  17.0445112  59.9594397  80.8059115
  10.3620893  61.6552840  96.4073167  11.1035578  62.1937884  96.1307991
   9.6557879  62.2819129  96.5644719  15.8376233  63.7981981  95.0045329
  16.2459589  63.3564391  94.2599961  15.1153495  63.2234608  95.2579522
  12.1907303  58.7354587  92.3778886  13.0368498  59.1594001  92.5213535
  12.1305941  58.0788212  93.0717449  16.1605048  64.3583171  88.7597618
  15.5313910  64.5228885  88.0573686  15.7730710  64.7724781  89.5308582
  15.3406748  56.3958956  94.0360059  15.0967680  57.1501016  93.4994335
  15.6166679  56.7744303  94.8707307  17.2945211  62.9397568  92.7137325
  17.5062106  63.5829328  92.0371706  17.2474959  62.1059885  92.2459255
  14.8971440  55.5515389  89.6173897  14.0355919  55.8496642  89.9090635
  14.9233875  55.7685788  88.6854930  11.7133010  64.0957579  86.0247703
  12.1771355  64.3745282  85.2352325  11.4489808  63.1941024  85.8420794
   8.6057091  63.6429061  88.9627466   9.1758448  64.0716329  88.3244951
   9.1965203  63.3611646  89.6611652  10.6501896  60.2180732  82.8337268
  11.3525939  60.6701775  83.3011194  10.3182524  59.5764551  83.4617161
   9.0982257  58.8092488  97.2088477   8.4680918  59.4908769  97.4423874
   8.9918345  58.6975570  96.2641616   4.3927230  58.4764284  88.1354402
   3.6026284  58.7321813  87.6594512   4.8838477  59.2912622  88.2406442
  18.4091039  65.8169524  90.8859682  19.2308483  65.4149711  90.6042364
  18.4053442  65.7137758  91.8375798   6.3441975  58.8408864  85.0937878
   5.5473138  58.9527558  85.6121374   6.1167567  59.1795516  84.2278769
  12.1747643  65.3653567  93.0420393  12.2392075  65.8273974  93.8778565
  11.4658567  64.7350932  93.1702703   2.6764933  58.7294775  90.5669392
   2.9272971  59.6141785  90.8326968   3.2124481  58.5499376  89.7944484
  11.8895660  67.0321674  82.9099373  11.7541335  67.8773210  83.3384221
  12.4305473  67.2340952  82.1465307   8.3763000  53.1113254  99.5713728
   7.9829945  52.5579453 100.2461373   9.1929140  53.4223833  99.9620246
   5.3425058  64.5497112  83.4827298   5.8549578  65.3440363  83.6332863
   5.9947771  63.8523403  83.4160900   7.1519942  67.6662869  85.5650052
   7.3286571  68.5880833  85.3771035   7.9476776  67.3521288  85.9944431
  11.2930961  54.5271133  97.1633985  12.0340674  55.1278286  97.0838447
  11.5248884  53.7848771  96.6052028   6.4372299  59.7127501  95.4412215
   6.3225814  58.8112758  95.7419314   5.5816817  59.9591197  95.0897031
  13.5164137  67.6545241  97.0399715  13.0727991  66.8681619  96.7220620
  14.1781350  67.8424391  96.3743606   8.2751258  69.1841042  91.5660394
   8.8258683  69.0558106  90.7937388   7.4362734  69.4835931  91.2155287
  15.6145375  67.9348041  95.0681117  15.5963850  68.7556922  94.5761386
  16.5365295  67.8102116  95.2931258  12.0718429  65.4492170  95.9104625
  12.6046766  64.6880458  95.6803933  11.5432510  65.1565822  96.6528779
  15.2388124  50.5552236  91.4398267  14.8952393  51.4453878  91.3637377
  15.6067086  50.3653894  90.5767852   3.3073974  62.8785767  84.2586869
   4.1449196  63.2882775  84.0420577   3.4852242  61.9385209  84.2287063
  15.2038407  60.5460847  79.9470702  14.6885030  61.3165452  80.1859089
  14.9315715  59.8725983  80.5703763  12.7885518  55.3910548  85.0055940
  11.9327114  55.0017398  84.8261579  13.2012469  55.4702509  84.1455726
  14.3184664  52.9256891  89.4047500  13.8149460  52.8887027  88.5915305
  14.6115271  53.8349634  89.4644157  10.5627550  53.0095621  88.4113682
  11.4280547  52.8138430  88.0519571  10.6305059  52.7805973  89.3383038
  20.1772681  63.2993202  81.8823875  19.4002123  62.9604361  81.4379037
  20.8564162  63.3045825  81.2078840  14.9924710  58.4187939  81.7730483
  14.6874845  58.7334089  82.6240626  15.9455152  58.4969359  81.8157816
  13.4371142  64.5778163  83.4223437  12.9092503  63.8430922  83.1096674
  12.9358644  65.3552839  83.1763405  18.4163988  62.7727183  88.5390483
  17.7587662  63.4626445  88.6270612  19.2204387  63.1623615  88.8824470
   8.1689869  55.2397829  85.7830048   8.7433621  55.0173011  85.0503241
   8.7560852  55.3086524  86.5358650  17.2269446  61.1271556  86.5894425
  17.7401328  61.7601548  87.0916135  17.8770670  60.5272751  86.2237785
   8.4959456  57.2702290  79.8025934   7.6596769  57.6076977  80.1235208
   8.3564226  57.1351270  78.8653071  10.4712537  52.1139078  84.5105118
   9.8176949  51.7988095  83.8861733  10.4293011  51.4914818  85.2364941
  11.5823742  62.3958373  76.4258410  10.6750804  62.1647626  76.6249559
  12.0794774  61.5995992  76.6132392  14.4891821  71.1055880  79.3455096
  13.8153519  71.4087577  79.9540054  14.8757643  71.9084961  78.9960553
  13.7050277  58.6021011  88.8352766  12.7872839  58.8235958  88.6774454
  14.1210421  58.6767322  87.9764473  14.4885325  60.0012427  83.9655446
  15.2357144  60.5133824  83.6562568  14.7576915  59.6796480  84.8259839
  12.7611975  62.4970968  80.9482400  11.8523194  62.2130001  81.0454870
  12.7907059  62.9170046  80.0885707  17.9931243  66.1077557  84.7173568
  17.5393570  65.2668467  84.7738758  17.3625209  66.7438956  85.0548348
  16.9364162  57.0369543  85.9474235  16.1986919  56.5246930  86.2784478
  17.1890936  56.5969925  85.1357512  16.4364182  67.9454054  85.6523386
  16.7287156  68.5059111  84.9335751  16.9462802  68.2382615  86.4076545
  17.0375790  49.8145795  86.5416004  17.3434666  48.9543159  86.2541919
  17.7628394  50.4063416  86.3414998   3.3300146  60.2176482  84.9297602
   3.1324545  59.6245843  84.2048669   2.7746810  59.9128692  85.6473541
  11.3096869  60.1099588  87.0492195  11.3645479  59.1573425  86.9734672
  10.4988071  60.2659028  87.5333494  12.4588063  64.0379712  78.2870479
  12.0207493  63.3215570  77.8276116  13.1998504  64.2655826  77.7255570
   9.2489229  58.7276648  84.8082574   8.4357095  59.0270819  85.2147766
   9.7448223  58.3332337  85.5257057  11.3997807  68.7234405  86.7416839
  11.3573986  68.9495251  85.8125371  12.3160506  68.4897780  86.8902640
  14.8463441  59.1918473  93.6397468  15.2012829  59.4189946  94.4991934
  15.4935572  59.5236849  93.0174724  20.5761178  62.3136909  84.3446797
  20.4379076  62.5038505  83.4167986  20.2197397  63.0756291  84.8014848
   8.7403304  56.2995004  90.4243809   9.3802683  56.1583763  89.7266773
   7.9080834  56.0129517  90.0482411  20.6030557  64.3813436  89.3558069
  21.0367064  64.2888725  90.2041123  21.3162138  64.3570936  88.7178085
   9.5163608  65.5997434  86.5378802  10.3104206  65.1047754  86.3361377
   8.8055300  65.0715297  86.1746507  14.3358452  67.9815530  90.8891169
  14.3895475  68.5506466  91.6568885  13.4673234  68.1517415  90.5245206
   5.8246371  59.7440516  82.6138554   4.8943959  59.6824971  82.8308517
   5.9203843  59.2216469  81.8175196   5.7431920  56.2695329  85.2016796
   6.0038738  57.1840662  85.0925957   6.5649093  55.8019771  85.3513409
   7.2156846  57.6833086  92.3715621   7.8879899  57.4750448  91.7228270
   6.3886632  57.4855172  91.9320853  21.4646107  64.4237136  91.8890954
  21.6581997  65.3282947  92.1350229  21.3646725  63.9644555  92.7229539
  13.1182418  54.3095027  94.3881281  12.4710333  55.0084976  94.2945758
  13.8883433  54.7431171  94.7557530  16.5261216  64.5743879  97.4631835
  16.3746722  64.3454431  96.5461918  16.5165895  65.5314480  97.4763180
  13.2946552  62.1475792  92.4478101  14.2238612  62.2986951  92.2747069
  12.8737582  62.2359813  91.5926748  12.0934884  66.1726456  90.2176639
  11.9545970  65.8045241  91.0902577  11.3049480  66.6874096  90.0460597
  12.6883036  71.2735553  81.5602175  12.8634791  70.8023596  82.3747798
  12.0015824  71.9001319  81.7883436  13.6440099  65.5508059  87.6065477
  13.3089932  65.5108829  88.5023127  13.1444045  64.8852775  87.1335887
   7.6184343  60.9575689  93.1318058   7.4804141  60.2255928  93.7329597
   8.5289266  60.8684589  92.8502246  16.5799291  62.8964093  77.8802536
  15.9628461  62.1710921  77.7835589  16.1115779  63.6573453  77.5369611
  10.2466644  60.6695648  92.6201737  10.9566262  60.0288840  92.5788356
  10.2035952  60.9208543  93.5427918  18.2353422  67.6063002  95.5408317
  18.1765968  66.9222222  94.8738900  18.6372941  68.3481992  95.0888943
   8.9595578  57.6560866  94.4397377   8.4232935  57.2051605  95.0918973
   8.3712286  57.7906775  93.6967841   7.2544121  74.4224915  88.3342036
   7.4940719  75.0543440  89.0121054   6.4113318  74.0712955  88.6207395
   8.3697837  57.1149517  77.0023841   7.4927303  56.9938318  76.6386087
   8.8455590  56.3235596  76.7502729  18.2370830  65.5702585  93.7722296
  17.3497608  65.2328507  93.8948695  18.8069381  64.8385617  94.0091062
   4.6934699  56.7916874  91.5250371   4.6092888  56.1842543  90.7900781
   3.8717405  57.2825892  91.5259868  11.7671983  70.2304038  90.7383540
  11.6942154  71.0359009  91.2502844  11.3249376  70.4296004  89.9131561
  11.5561763  69.4675808  84.2486361  10.7729284  70.0097488  84.3424586
  12.2554508  69.9849787  84.6480602  14.8658413  55.2770437  86.8920566
  15.3627112  54.5240400  86.5721637  14.0945394  55.3134754  86.3263776
  22.7188170  60.9810803  88.5338858  22.7078046  61.8635518  88.1632791
  21.8505550  60.6282354  88.3393395  14.2270666  70.1290872  92.8941698
  14.9398639  70.7638337  92.8217600  13.7360695  70.2254738  92.0781700
  15.9488193  64.0342125  84.4658990  15.0144472  64.1543587  84.2963694
  16.1264862  63.1314591  84.2019000  11.4493381  57.4187820  86.6192251
  11.0791169  56.8658861  87.3073157  11.9452474  56.8145954  86.0667251
  19.3360745  59.8759444  85.0009024  19.8021197  60.7087435  84.9269327
  19.7868245  59.4104425  85.7054282   9.2782580  67.8785315  93.7147269
   9.9792039  68.5121798  93.8676663   8.8077695  68.2200047  92.9542908
  17.4036976  66.2203265  81.9995176  17.6796820  66.1059860  82.9089050
  16.5341475  65.8220750  81.9607349  17.3077407  52.2440031  89.0399925
  16.3940487  52.4744258  89.2082132  17.7370509  52.3278475  89.8913958
  17.0783866  60.4329923  91.5399819  16.4255316  60.6805830  90.8852272
  17.4564246  59.6194061  91.2062297  14.0391040  70.4689616  85.6427990
  14.2213434  69.6511272  86.1055742  14.8624026  70.6857308  85.2052880
  14.3733205  69.3957801  82.9043038  14.9020972  68.8850256  82.2913200
  14.6361425  69.0800331  83.7688571  13.1271439  61.1749734  98.0265856
  12.4512076  61.0743863  98.6968232  13.9499073  61.0188948  98.4901854
   4.8750298  67.4121670  90.6478372   5.4603735  66.6665358  90.7806276
   4.6775137  67.7225627  91.5315036   7.7288953  70.4472918  85.6640814
   7.0599329  70.9319045  85.1804854   7.5901823  70.6942138  86.5784193
  11.8694222  72.4816661  92.2623472  12.4212530  72.6448283  93.0272558
  12.2100415  73.0721099  91.5903497   6.8458715  54.8291811  92.8645357
   6.9100042  55.6906642  92.4522755   6.7825835  54.2165813  92.1317716
   6.3210988  56.9014944  96.5118391   6.9483026  56.5192021  97.1255916
   5.4638906  56.6829146  96.8774084  16.7205096  67.3077919  98.1172127
  17.2645000  67.9207877  97.6227082  16.1391941  67.8657497  98.6339140
   3.0976530  58.7091373  82.4436746   3.3929971  57.8002051  82.3903800
   2.1964566  58.6879112  82.1217749  15.0062609  70.4298637  89.2487155
  14.8813749  69.6288377  88.7398100  15.6641700  70.9244830  88.7601125
   6.6270777  56.7847369  88.4264295   5.9057363  57.3983337  88.2871768
   7.4164033  57.3205134  88.3480941  17.0697518  68.2307657  90.8766705
  16.1227853  68.1113008  90.8045031  17.4180291  67.3430155  90.9592966
   9.4297091  54.1201796  94.7004947   9.9531493  54.3664092  95.4631256
   9.2109424  54.9521831  94.2808084   4.8264372  56.3905470  82.5676071
   4.4977078  55.5102849  82.3851177   5.1803743  56.3353139  83.4552461
  14.0743951  68.0260373  87.0771057  13.9268913  67.0977081  87.2578627
  14.8997444  68.0480464  86.5928132   7.9406195  56.6778440  82.9351549
   8.2802268  57.2064361  82.2130157   8.3878316  57.0158846  83.7110116
  17.6778073  68.8488932  88.1635930  18.6024620  68.6431793  88.0260381
  17.5093376  68.6005333  89.0725271  10.6349636  55.0615491  92.3854617
  10.2946456  54.2623304  92.7875297   9.9288642  55.3617202  91.8131450
  11.2866108  52.1464803  90.8381940  12.1092177  51.6725282  90.7160830
  11.5304171  52.9255287  91.3380626   9.9274342  55.1753062  81.1344842
  10.6482705  55.5534315  80.6308559   9.3039646  55.8941939  81.2379820
  14.0705465  55.8798211  82.0703174  14.2869080  56.7622849  81.7692002
  13.5899532  55.4884424  81.3408816   8.8104687  58.8383924  88.6473919
   8.6649267  59.1524227  89.5398200   8.3329890  59.4568824  88.0944817
  10.6701069  55.8286472  88.6954808  10.6562638  54.9327565  88.3587106
  11.3873498  55.8357136  89.3293094  12.5227200  56.2623812  90.7407936
  12.2644978  57.1840883  90.7392266  11.9912241  55.8654247  91.4308400
  17.4673389  69.3674599  83.5198021  17.6410266  68.8021022  82.7671874
  17.9602280  70.1675494  83.3377511   3.2850349  61.3789268  91.5861580
   2.7403817  62.1549076  91.7181854   4.1629699  61.7260073  91.4280701
  10.0737965  54.7100852  83.9642378  10.1953877  53.7817498  84.1633266
   9.7840008  54.7239538  83.0520694  12.9429156  52.3955763  87.1009098
  12.9650853  52.4595096  86.1461078  13.3597215  51.5560271  87.2949604
  18.4548561  68.6841364  80.6194919  19.1499466  69.3048056  80.8382234
  18.7971712  67.8336715  80.8947297   4.0716371  60.5059165  94.4791737
   3.3298107  60.6541800  95.0656367   3.7509115  60.7667430  93.6158486
  20.3539984  66.1341069  82.1482250  20.8791309  66.4728342  81.4231570
  20.2662337  65.1988085  81.9645385  12.0160033  70.0475143  94.2772127
  12.3247160  69.8024290  95.1494826  12.8135515  70.2521781  93.7890997
  12.0380645  72.2013052  86.5077503  11.5985636  71.7089431  87.2010360
  12.7888762  71.6586020  86.2669579   4.5172984  68.3924593  86.5102131
   5.3431004  68.0928365  86.1300775   4.1667036  67.6232216  86.9591920
   9.4854517  67.7451062  88.5799805   8.8634527  67.0821767  88.2802033
  10.1559384  67.7712193  87.8973453   2.7181589  66.3110920  87.4691065
   1.8813498  65.8833094  87.2875066   2.6905235  66.5043363  88.4061856
   9.5579045  56.2232850  98.1732311   9.6067200  57.0994972  97.7910081
  10.1001559  55.6810243  97.6003954  20.0433891  66.7673973  97.4533448
  19.2529434  66.7498112  96.9137948  19.8067245  67.3062267  98.2082485
  20.1631766  63.6166439  94.7666177  20.2129771  63.4516447  95.7081699
  20.0545689  62.7493698  94.3764057   9.0468024  66.2954985  82.0558266
   9.1956145  66.9790449  81.4024938   9.8534468  66.2760075  82.5707721
  17.4535528  59.5997367  96.0825483  18.3545391  59.4603832  95.7909481
  17.5283503  59.7651822  97.0223661  11.7878333  56.9764222  94.9278670
  10.9181643  57.2697788  94.6561258  12.0237814  57.5604667  95.6485933
  21.6649962  66.0363381  95.0108198  21.3734771  66.3993361  95.8471659
  21.0522094  65.3230389  94.8321530  19.9137151  61.1595995  93.4788256
  20.3891272  61.3523642  92.6707108  18.9902716  61.2155181  93.2331640
   6.8020657  62.3220163  83.0619334   6.5566699  61.4182493  83.2599545
   6.9716572  62.3237313  82.1198812  14.4917367  53.1943839  92.4444090
  15.0099311  53.9304866  92.1190579  14.1372500  53.5007832  93.2790849
   6.0716305  58.0548520  80.5605496   5.3785550  58.1292875  79.9045532
   5.8268057  57.2908864  81.0827013  14.7429961  49.6144121  87.9644987
  15.0231715  48.9467311  88.5905413  15.5280568  49.8073217  87.4519650
  12.5463430  68.7903115  79.5270013  11.9737397  69.4093303  79.0740485
  13.1196223  69.3402477  80.0609935  18.6138820  58.0361755  91.7116562
  19.5656243  58.1359853  91.7328786  18.4442270  57.2440024  92.2214646
  16.6353199  55.1217339  91.8975963  16.0403131  55.4022351  91.2022451
  16.3502896  55.6111240  92.6692704  15.7660690  69.0740265  80.6578595
  16.6991363  69.0085827  80.8611471  15.6783902  69.9096532  80.1993128
  18.3948706  68.3906136  77.6182543  18.3162338  68.0565999  78.5118301
  19.2158373  68.8827904  77.6174015  21.0926897  61.2567875  90.8258861
  21.0603218  60.3183876  91.0118545  21.7027521  61.3351912  90.0924686
  12.9310228  60.1263928  76.8686065  13.8769333  59.9970136  76.9374484
  12.5524473  59.3878590  77.3455494  21.2421386  58.0478919  90.8717145
  20.7260435  57.2637375  90.6847073  22.1261334  57.7197635  91.0363664
  18.9032113  51.7919934  86.8312957  18.7056934  51.4835022  87.7156289
  19.5131818  52.5181573  86.9610887  26.9103447  62.3183882  89.9664898
  27.6406836  62.0569170  90.5272602  26.3010393  61.5812604  90.0066966
  24.9918744  60.4591745  90.5639349  24.2651908  60.3247710  89.9555841
  24.5766031  60.7668573  91.3696067  12.8148921  64.1781674  98.3286722
  13.7351930  64.3560273  98.5226769  12.7798504  63.2337720  98.1766422
  11.1153145  58.0513905  76.8040951  10.2084601  57.7547017  76.8803664
  11.3929126  57.7543723  75.9375237   2.0331086  59.3720268  87.2539997
   1.7133870  58.5185576  86.9614371   1.4864514  59.5868846  88.0097964
   5.8110993  62.0882709  90.9709504   6.0297003  63.0199817  90.9897537
   6.2236767  61.7290683  91.7564307  12.7315211  52.5950794  82.9585192
  11.9215940  52.2497879  83.3340438  13.4199628  52.2858338  83.5472804
  14.6605759  51.6728841  84.5809489  15.2136798  52.0924294  85.2399512
  14.8975846  50.7464589  84.6232445  10.6838859  57.6615915 100.3612253
  10.5835586  58.6110272 100.2924344  10.4660401  57.3334154  99.4888323
   9.8851930  54.9100840  76.9452930  10.7471094  55.2355738  77.2048747
  10.0702274  54.1232336  76.4325996   1.9019346  62.9923179  89.2233119
   1.2082817  62.5777132  88.7103073   2.6492337  63.0343716  88.6266538
  18.0384567  53.7829366  84.0888153  17.4583236  54.4414170  83.7066205
  17.7720499  52.9606711  83.6775570  16.4888133  53.1834424  86.2909473
  16.9887911  53.2950958  85.4823792  17.1323741  52.8795477  86.9310282
  10.5470129  61.0913054  99.1777314  10.0637210  61.8913414  99.3841203
  10.6331068  61.1020998  98.2244758   3.8156088  62.9241433  87.0999134
   3.7926776  63.0229120  86.1481017   4.1256725  63.7706584  87.4216300
   6.4743466  64.9817588  91.2145748   7.4286720  64.9501531  91.1475680
   6.2755990  64.5208212  92.0295974   7.0642848  63.5518704  93.7816546
   7.8835737  64.0462783  93.8051383   7.3379656  62.6350672  93.7534113
  16.8209445  55.9429457  83.1444501  15.9335300  56.2279107  82.9264696
  17.2363434  55.7823220  82.2971778  20.1723981  55.9675978  86.8598840
  20.9484371  56.4572430  87.1323457  19.4472115  56.3934032  87.3170710
  22.6096539  56.6803597  87.9172781  23.2041030  56.4399333  87.2066089
  22.6823123  55.9610727  88.5446317   4.8293695  70.5237208  88.2315946
   4.6948163  69.7637609  87.6653944   4.4125757  71.2478108  87.7644735
  15.9652658  65.7074131  77.2392521  16.6688508  65.9124134  77.8550177
  15.2415307  66.2750893  77.5041605  16.7950468  61.4583993  83.3594791
  16.7385670  61.9152544  82.5202424  17.3478811  60.6974677  83.1817634
  20.6055274  57.2473724  84.1844911  20.3492208  56.8470360  85.0153118
  19.9808142  57.9617518  84.0595050  24.9167612  59.9869798  86.6916202
  24.3567170  60.0562987  87.4647764  24.3111115  59.8110782  85.9715698
   7.9862821  71.4206525  88.4434388   7.8695205  72.3651957  88.3413079
   7.1655267  71.1180086  88.8320188  17.8739355  66.1456660  79.2890981
  18.7084959  65.7137859  79.1068456  17.7123698  65.9738674  80.2167876
  17.5285248  62.6488774  80.6547321  17.4734051  62.4833045  79.7135765
  16.9031303  63.3564807  80.8109510   2.3177763  57.8856838  94.4808743
   2.9636626  57.3755792  94.9695968   2.1094914  58.6225520  95.0552168
  14.8431155  64.9537686  99.9800883  15.7122314  65.1278338  99.6187518
  14.3637906  65.7732102  99.8576613  10.8381373  52.1496883  80.2332639
  10.8260043  53.0938723  80.3900910  11.7304795  51.9667028  79.9392100
   9.0117335  72.0734787  91.6590317   9.9144582  72.1058397  91.9756812
   8.7854705  71.1435238  91.6736653  10.7670937  70.8265773  88.3200396
   9.8166568  70.8267635  88.2064768  11.0703423  70.0798508  87.8036430
  14.6533493  48.7439659  84.4878576  13.8865888  48.1898146  84.6335258
  15.0644198  48.8161528  85.3492727   6.6575254  55.0324455  98.5783757
   7.5206715  54.6761260  98.7887082   6.0840664  54.6938350  99.2659161
  23.3113337  76.6153740  89.3207683  22.9731848  76.4994804  88.4328217
  24.1803105  76.2144905  89.3008689  19.1700153  78.4689216  85.3104574
  18.6065018  78.3779153  84.5420861  19.0552548  77.6489121  85.7907066
  23.7933120  77.7688591  95.2793888  23.7821761  77.3741390  94.4074392
  23.9553759  77.0354664  95.8727660  16.7164584  79.9640408  88.1488794
  17.5085876  79.6231232  87.7335093  16.9561235  80.0735383  89.0690947
  24.7499711  82.1360184  80.6219038  24.0987691  82.7214264  80.2353052
  25.5444074  82.6666379  80.6814076  18.6755338  79.2249321  81.0206173
  19.4486214  78.6778308  80.8819049  19.0280737  80.0893570  81.2320634
  20.5140381  80.5525703  94.2273072  20.2230247  81.4571334  94.1119738
  21.1497365  80.5942231  94.9417142  21.4396588  77.9302552  90.8174432
  22.0360160  77.7058574  90.1031395  21.4971559  77.1887297  91.4199880
  21.0121616  75.3841987  78.6524623  21.2647137  74.8623508  77.8908086
  20.0746175  75.2208132  78.7551306  26.2274976  79.8250616  81.1588023
  25.5920809  79.8985242  81.8708927  25.8972383  80.4144215  80.4807102
  20.7317905  77.2870093  80.8548998  20.6154163  76.6114996  81.5230082
  20.8420165  76.8002467  80.0381151  25.4730266  80.2387119  91.2222866
  25.1730989  81.1412158  91.1138673  25.1281326  79.9719302  92.0744019
  18.9242748  76.6900916  87.2559570  17.9993244  76.5577130  87.4637262
  19.1727161  77.4695135  87.7529513  16.2851559  76.3334189  88.0903359
  16.4143940  76.5868668  89.0042771  15.6049010  76.9261897  87.7708014
  20.4551046  87.0031439  84.1893834  20.3775076  87.9539264  84.2682314
  19.8512689  86.6577312  84.8468760  22.9468276  74.1759304  96.8455200
  22.1701610  74.7353225  96.8358065  23.5858839  74.6616087  97.3670071
  21.2014648  76.9844758  96.4073167  21.9429332  77.5229802  96.1307991
  20.4951633  77.6111047  96.5644719  26.6769988  79.1273898  95.0045329
  27.0853344  78.6856309  94.2599961  25.9547249  78.5526526  95.2579522
  23.0301058  74.0646505  92.3778886  23.8762253  74.4885919  92.5213535
  22.9699695  73.4080129  93.0717449  26.9998802  79.6875089  88.7597618
  26.3707665  79.8520803  88.0573686  26.6124464  80.1016698  89.5308582
  26.1800503  71.7250873  94.0360059  25.9361435  72.4792934  93.4994335
  26.4560433  72.1036221  94.8707307  28.1338966  78.2689486  92.7137325
  28.3455861  78.9121246  92.0371706  28.0868714  77.4351802  92.2459255
  22.5526764  79.4249497  86.0247703  23.0165110  79.7037200  85.2352325
  22.2883562  78.5232942  85.8420794  19.4450845  78.9720979  88.9627466
  20.0152202  79.4008247  88.3244951  20.0358957  78.6903563  89.6611652
  21.4895650  75.5472649  82.8337268  22.1919693  75.9993693  83.3011194
  21.1576279  74.9056468  83.4617161  19.9376012  74.1384406  97.2088477
  19.3074672  74.8200687  97.4423874  19.8312100  74.0267488  96.2641616
  15.2320984  73.8056202  88.1354402  14.4420038  74.0613731  87.6594512
  15.7232231  74.6204540  88.2406442  29.2484794  81.1461441  90.8859682
  30.0702237  80.7441628  90.6042364  29.2447197  81.0429675  91.8375798
  17.1835729  74.1700781  85.0937878  16.3866893  74.2819476  85.6121374
  16.9561322  74.5087434  84.2278769  23.0141397  80.6945485  93.0420393
  23.0785830  81.1565892  93.8778565  22.3052321  80.0642849  93.1702703
  13.5158687  74.0586692  90.5669392  13.7666726  74.9433702  90.8326968
  14.0518235  73.8791294  89.7944484  22.7289415  82.3613592  82.9099373
  22.5935090  83.2065128  83.3384221  23.2699227  82.5632870  82.1465307
  19.2156754  68.4405172  99.5713728  18.8223700  67.8871370 100.2461373
  20.0322895  68.7515750  99.9620246  16.1818812  79.8789030  83.4827298
  16.6943333  80.6732280  83.6332863  16.8341525  79.1815320  83.4160900
  17.9913697  82.9954786  85.5650052  18.1680325  83.9172751  85.3771035
  18.7870530  82.6813206  85.9944431  22.1324715  69.8563051  97.1633985
  22.8734429  70.4570204  97.0838447  22.3642638  69.1140689  96.6052028
  17.2766053  75.0419418  95.4412215  17.1619569  74.1404675  95.7419314
  16.4210571  75.2883115  95.0897031  24.3557891  82.9837159  97.0399715
  23.9121745  82.1973537  96.7220620  25.0175105  83.1716309  96.3743606
  19.1145012  84.5132960  91.5660394  19.6652437  84.3850023  90.7937388
  18.2756488  84.8127849  91.2155287  26.4539129  83.2639958  95.0681117
  26.4357605  84.0848839  94.5761386  27.3759049  83.1394034  95.2931258
  22.9112183  80.7784088  95.9104625  23.4440520  80.0172376  95.6803933
  22.3826264  80.4857740  96.6528779  26.0781878  65.8844154  91.4398267
  25.7346148  66.7745796  91.3637377  26.4460841  65.6945812  90.5767852
  14.1467729  78.2077684  84.2586869  14.9842951  78.6174693  84.0420577
  14.3245997  77.2677127  84.2287063  24.2764896  79.9070080  83.4223437
  23.7486258  79.1722840  83.1096674  23.7752399  80.6844757  83.1763405
  19.0083624  70.5689747  85.7830048  19.5827376  70.3464928  85.0503241
  19.5954606  70.6378441  86.5358650  19.3353211  72.5994208  79.8025934
  18.4990523  72.9368894  80.1235208  19.1957980  72.4643188  78.8653071
  22.4217496  77.7250291  76.4258410  21.5144558  77.4939544  76.6249559
  22.9188528  76.9287910  76.6132392  25.3285575  86.4347798  79.3455096
  24.6547274  86.7379495  79.9540054  25.7151397  87.2376878  78.9960553
  28.8324997  81.4369475  84.7173568  28.3787324  80.5960385  84.7738758
  28.2018964  82.0730873  85.0548348  27.2757936  83.2745972  85.6523386
  27.5680911  83.8351029  84.9335751  27.7856557  83.5674533  86.4076545
  14.1693900  75.5468400  84.9297602  13.9718300  74.9537760  84.2048669
  13.6140564  75.2420610  85.6473541  23.2981818  79.3671629  78.2870479
  22.8601247  78.6507488  77.8276116  24.0392258  79.5947744  77.7255570
  20.0882984  74.0568566  84.8082574  19.2750849  74.3562736  85.2147766
  20.5841978  73.6624255  85.5257057  22.2391562  84.0526323  86.7416839
  22.1967740  84.2787169  85.8125371  23.1554260  83.8189697  86.8902640
  25.6857195  74.5210390  93.6397468  26.0406583  74.7481863  94.4991934
  26.3329327  74.8528767  93.0174724  19.5797058  71.6286921  90.4243809
  20.2196438  71.4875681  89.7266773  18.7474589  71.3421435  90.0482411
  31.4424312  79.7105353  89.3558069  31.8760819  79.6180642  90.2041123
  32.1555893  79.6862854  88.7178085  20.3557362  80.9289352  86.5378802
  21.1497961  80.4339672  86.3361377  19.6449055  80.4007215  86.1746507
  25.1752207  83.3107447  90.8891169  25.2289229  83.8798384  91.6568885
  24.3066988  83.4809332  90.5245206  16.6640126  75.0732434  82.6138554
  15.7337714  75.0116889  82.8308517  16.7597598  74.5508386  81.8175196
  16.5825675  71.5987246  85.2016796  16.8432492  72.5132580  85.0925957
  17.4042847  71.1311689  85.3513409  18.0550600  73.0125004  92.3715621
  18.7273654  72.8042366  91.7228270  17.2280387  72.8147090  91.9320853
  32.3039861  79.7529054  91.8890954  32.4975752  80.6574864  92.1350229
  32.2040480  79.2936473  92.7229539  23.9576172  69.6386944  94.3881281
  23.3104087  70.3376894  94.2945758  24.7277188  70.0723088  94.7557530
  27.3654970  79.9035797  97.4631835  27.2140477  79.6746348  96.5461918
  27.3559650  80.8606398  97.4763180  24.1340307  77.4767709  92.4478101
  25.0632367  77.6278869  92.2747069  23.7131337  77.5651730  91.5926748
  22.9328638  81.5018374  90.2176639  22.7939724  81.1337158  91.0902577
  22.1443235  82.0166013  90.0460597  23.5276790  86.6027470  81.5602175
  23.7028546  86.1315513  82.3747798  22.8409578  87.2293236  81.7883436
  24.4833853  80.8799977  87.6065477  24.1483686  80.8400746  88.5023127
  23.9837799  80.2144692  87.1335887  18.4578097  76.2867607  93.1318058
  18.3197895  75.5547845  93.7329597  19.3683021  76.1976507  92.8502246
  21.0860398  75.9987566  92.6201737  21.7960017  75.3580758  92.5788356
  21.0429706  76.2500461  93.5427918  29.0747177  82.9354919  95.5408317
  29.0159723  82.2514139  94.8738900  29.4766695  83.6773909  95.0888943
  19.7989332  72.9852784  94.4397377  19.2626689  72.5343522  95.0918973
  19.2106041  73.1198693  93.6967841  18.0937876  89.7516833  88.3342036
  18.3334474  90.3835357  89.0121054  17.2507072  89.4004873  88.6207395
  19.2091591  72.4441435  77.0023841  18.3321057  72.3230236  76.6386087
  19.6849344  71.6527513  76.7502729  29.0764584  80.8994503  93.7722296
  28.1891363  80.5620425  93.8948695  29.6463135  80.1677534  94.0091062
  10.7293731  77.2318595  87.0965348  11.4164771  76.9180325  86.5086363
  10.5741860  78.1359960  86.8232599  15.5328453  72.1208791  91.5250371
  15.4486642  71.5134461  90.7900781  14.7111160  72.6117810  91.5259868
  22.6065737  85.5595955  90.7383540  22.5335909  86.3650927  91.2502844
  22.1643131  85.7587921  89.9131561  22.3955517  84.7967726  84.2486361
  21.6123039  85.3389406  84.3424586  23.0948262  85.3141705  84.6480602
  25.0664421  85.4582790  92.8941698  25.7792393  86.0930254  92.8217600
  24.5754450  85.5546656  92.0781700  20.1176334  83.2077233  93.7147269
  20.8185794  83.8413716  93.8676663  19.6471449  83.5491965  92.9542908
  28.2430730  81.5495183  81.9995176  28.5190574  81.4351777  82.9089050
  27.3735229  81.1512668  81.9607349  24.8784794  85.7981534  85.6427990
  25.0607189  84.9803190  86.1055742  25.7017780  86.0149226  85.2052880
  25.2126960  84.7249719  82.9043038  25.7414726  84.2142173  82.2913200
  25.4755179  84.4092249  83.7688571  23.9665193  76.5041651  98.0265856
  23.2905830  76.4035781  98.6968232  24.7892827  76.3480865  98.4901854
  15.7144053  82.7413588  90.6478372  16.2997489  81.9957276  90.7806276
  15.5168891  83.0517545  91.5315036  18.5682708  85.7764835  85.6640814
  17.8993083  86.2610963  85.1804854  18.4295577  86.0234056  86.5784193
  10.3061707  75.3119188  89.3682815  10.3445807  74.7782779  90.1619933
   9.8002000  74.7854394  88.7493792  22.7087976  87.8108579  92.2623472
  23.2606284  87.9740200  93.0272558  23.0494170  88.4013017  91.5903497
  17.6852470  70.1583729  92.8645357  17.7493796  71.0198560  92.4522755
  17.6219590  69.5457730  92.1317716  17.1604742  72.2306861  96.5118391
  17.7876781  71.8483939  97.1255916  16.3032661  72.0121063  96.8774084
  27.5598851  82.6369836  98.1172127  28.1038755  83.2499795  97.6227082
  26.9785696  83.1949415  98.6339140  13.9370285  74.0383290  82.4436746
  14.2323726  73.1293969  82.3903800  13.0358321  74.0171030  82.1217749
  25.8456364  85.7590554  89.2487155  25.7207503  84.9580294  88.7398100
  26.5035455  86.2536748  88.7601125  17.4664532  72.1139287  88.4264295
  16.7451118  72.7275255  88.2871768  18.2557788  72.6497052  88.3480941
  27.9091272  83.5599575  90.8766705  26.9621608  83.4404926  90.8045031
  28.2574045  82.6722073  90.9592966  20.2690845  69.4493713  94.7004947
  20.7925247  69.6956010  95.4631256  20.0503179  70.2813748  94.2808084
  15.6658126  71.7197388  82.5676071  15.3370833  70.8394767  82.3851177
  16.0197497  71.6645057  83.4552461  24.9137705  83.3552291  87.0771057
  24.7662668  82.4268998  87.2578627  25.7391199  83.3772381  86.5928132
  18.7799950  72.0070358  82.9351549  19.1196022  72.5356279  82.2130157
  19.2272070  72.3450764  83.7110116  28.5171827  84.1780849  88.1635930
  29.4418375  83.9723711  88.0260381  28.3487131  83.9297251  89.0725271
  21.4743390  70.3907409  92.3854617  21.1340211  69.5915222  92.7875297
  20.7682397  70.6909119  91.8131450  22.1259862  67.4756721  90.8381940
  22.9485932  67.0017199  90.7160830  22.3697926  68.2547205  91.3380626
  19.6498441  74.1675842  88.6473919  19.5043022  74.4816145  89.5398200
  19.1723645  74.7860742  88.0944817  21.5094824  71.1578390  88.6954808
  21.4956393  70.2619483  88.3587106  22.2267252  71.1649053  89.3293094
  23.3620955  71.5915730  90.7407936  23.1038732  72.5132800  90.7392266
  22.8305995  71.1946164  91.4308400  14.1244103  76.7081186  91.5861580
  13.5797571  77.4840994  91.7181854  15.0023453  77.0551991  91.4280701
  14.9110125  75.8351082  94.4791737  14.1691861  75.9833718  95.0656367
  14.5902869  76.0959348  93.6158486  22.8553788  85.3767061  94.2772127
  23.1640914  85.1316207  95.1494826  23.6529270  85.5813699  93.7890997
  22.8774400  87.5304970  86.5077503  22.4379390  87.0381349  87.2010360
  23.6282517  86.9877938  86.2669579  15.3566739  83.7216511  86.5102131
  16.1824759  83.4220283  86.1300775  15.0060791  82.9524133  86.9591920
  20.3248272  83.0742979  88.5799805  19.7028281  82.4113684  88.2802033
  20.9953139  83.1004111  87.8973453  13.5575344  81.6402837  87.4691065
  12.7207252  81.2125012  87.2875066  13.5298989  81.8335281  88.4061856
  20.3972799  71.5524767  98.1732311  20.4460955  72.4286890  97.7910081
  20.9395314  71.0102160  97.6003954  30.8827645  82.0965891  97.4533448
  30.0923189  82.0790029  96.9137948  30.6461000  82.6354184  98.2082485
  31.0025520  78.9458357  94.7666177  31.0523525  78.7808364  95.7081699
  30.8939443  78.0785616  94.3764057  19.8861779  81.6246903  82.0558266
  20.0349899  82.3082367  81.4024938  20.6928222  81.6051993  82.5707721
  22.6272088  72.3056140  94.9278670  21.7575397  72.5989706  94.6561258
  22.8631568  72.8896585  95.6485933  32.5043717  81.3655298  95.0108198
  32.2128525  81.7285279  95.8471659  31.8915848  80.6522307  94.8321530
  17.6414412  77.6512080  83.0619334  17.3960454  76.7474410  83.2599545
  17.8110326  77.6529231  82.1198812  25.3311122  68.5235757  92.4444090
  25.8493066  69.2596784  92.1190579  24.9766254  68.8299750  93.2790849
  16.9110059  73.3840438  80.5605496  16.2179304  73.4584793  79.9045532
  16.6661811  72.6200781  81.0827013  23.3857184  84.1195033  79.5270013
  22.8131151  84.7385220  79.0740485  23.9589978  84.6694395  80.0609935
  26.6054444  84.4032183  80.6578595  27.5385117  84.3377745  80.8611471
  26.5177657  85.2388450  80.1993128  23.6542675  79.5073592  98.3286722
  24.5745685  79.6852191  98.5226769  23.6192258  78.5629637  98.1766422
  21.9546900  73.3805822  76.8040951  21.0478355  73.0838935  76.8803664
  22.2322881  73.0835640  75.9375237  12.8724840  74.7012186  87.2539997
  12.5527625  73.8477494  86.9614371  12.3258269  74.9160764  88.0097964
  16.6504748  77.4174627  90.9709504  16.8690758  78.3491734  90.9897537
  17.0630522  77.0582601  91.7564307  21.5232613  72.9907832 100.3612253
  21.4229340  73.9402189 100.2924344  21.3054155  72.6626071  99.4888323
  20.7245685  70.2392757  76.9452930  21.5864849  70.5647656  77.2048747
  20.9096029  69.4524253  76.4325996  12.7413100  78.3215097  89.2233119
  12.0476572  77.9069050  88.7103073  13.4886091  78.3635634  88.6266538
  21.3863883  76.4204971  99.1777314  20.9030965  77.2205331  99.3841203
  21.4724822  76.4312916  98.2244758  14.6549843  78.2533351  87.0999134
  14.6320531  78.3521038  86.1481017  14.9650479  79.0998502  87.4216300
  17.3137221  80.3109506  91.2145748  18.2680474  80.2793448  91.1475680
  17.1149744  79.8500130  92.0295974  17.9036603  78.8810622  93.7816546
  18.7229492  79.3754701  93.8051383  18.1773411  77.9642590  93.7534113
  15.6687450  85.8529125  88.2315946  15.5341917  85.0929526  87.6653944
  15.2519512  86.5770025  87.7644735  26.8046413  81.0366049  77.2392521
  27.5082263  81.2416051  77.8550177  26.0809061  81.6042811  77.5041605
  18.8256575  86.7498442  88.4434388  18.7088960  87.6943875  88.3413079
  18.0049022  86.4472004  88.8320188  13.1571517  73.2148756  94.4808743
  13.8030381  72.7047710  94.9695968  12.9488668  73.9517437  95.0552168
  25.6824909  80.2829603  99.9800883  26.5516069  80.4570256  99.6187518
  25.2031661  81.1024020  99.8576613  19.8511090  87.4026704  91.6590317
  20.7538336  87.4350315  91.9756812  19.6248460  86.4727155  91.6736653
  21.6064692  86.1557691  88.3200396  20.6560323  86.1559552  88.2064768
  21.9097178  85.4090425  87.8036430  17.4969008  70.3616373  98.5783757
  18.3600470  70.0053178  98.7887082  16.9234419  70.0230268  99.2659161
  37.3417385  91.9918229  89.3846158  37.9795795  91.8724977  88.6809498
  37.2238228  92.9399073  89.4434110  34.1507091  91.9445657  89.3207683
  33.8125603  91.8286722  88.4328217  35.0196860  91.5436822  89.3008689
  30.0093907  93.7981134  85.3104574  29.4458772  93.7071071  84.5420861
  29.8946302  92.9781038  85.7907066  34.6326874  93.0980509  95.2793888
  34.6215515  92.7033307  94.4074392  34.7947514  92.3646582  95.8727660
  27.5558339  95.2932325  88.1488794  28.3479631  94.9523150  87.7335093
  27.7954989  95.4027300  89.0690947  35.5893466  97.4652101  80.6219038
  34.9381446  98.0506182  80.2353052  36.3837829  97.9958296  80.6814076
  29.5149093  94.5541239  81.0206173  30.2879969  94.0070226  80.8819049
  29.8674492  95.4185488  81.2320634  31.3534135  95.8817621  94.2273072
  31.0624001  96.7863252  94.1119738  31.9891120  95.9234148  94.9417142
  32.2790342  93.2594469  90.8174432  32.8753915  93.0350492  90.1031395
  32.3365314  92.5179215  91.4199880  37.0668731  95.1542533  81.1588023
  36.4314564  95.2277160  81.8708927  36.7366137  95.7436132  80.4807102
  31.5711659  92.6162011  80.8548998  31.4547918  91.9406914  81.5230082
  31.6813919  92.1294385  80.0381151  33.9143200  92.0772158  84.5595687
  33.5501408  91.5502779  85.2708608  34.7710316  91.6870627  84.3862172
  36.3124021  95.5679036  91.2222866  36.0124744  96.4704075  91.1138673
  35.9675080  95.3011220  92.0744019  29.7636502  92.0192833  87.2559570
  28.8386999  91.8869047  87.4637262  30.0120915  92.7987052  87.7529513
  27.1245313  91.6626107  88.0903359  27.2537694  91.9160586  89.0042771
  26.4442764  92.2553815  87.7708014  31.2944800 102.3323357  84.1893834
  31.2168830 103.2831182  84.2682314  30.6906444 101.9869229  84.8468760
  33.7862030  89.5051222  96.8455200  33.0095364  90.0645142  96.8358065
  34.4252593  89.9908005  97.3670071  32.0408402  92.3136676  96.4073167
  32.7823087  92.8521719  96.1307991  31.3345388  92.9402964  96.5644719
  37.5163742  94.4565816  95.0045329  37.9247098  94.0148226  94.2599961
  36.7941004  93.8818443  95.2579522  33.8694812  89.3938423  92.3778886
  34.7156007  89.8177836  92.5213535  33.8093450  88.7372047  93.0717449
  37.8392557  95.0167007  88.7597618  37.2101419  95.1812721  88.0573686
  37.4518219  95.4308616  89.5308582  41.7181789  95.9521444  86.1141982
  41.0332827  96.3320346  85.5639015  41.8025638  96.5616771  86.8473929
  37.0194257  87.0542791  94.0360059  36.7755189  87.8084852  93.4994335
  37.2954188  87.4328139  94.8707307  38.9732720  93.5981403  92.7137325
  39.1849615  94.2413163  92.0371706  38.9262468  92.7643720  92.2459255
  33.3920519  94.7541415  86.0247703  33.8558864  95.0329118  85.2352325
  33.1277317  93.8524859  85.8420794  30.2844600  94.3012896  88.9627466
  30.8545957  94.7300165  88.3244951  30.8752711  94.0195481  89.6611652
  30.7769766  89.4676324  97.2088477  30.1468427  90.1492605  97.4423874
  30.6705854  89.3559405  96.2641616  26.0714739  89.1348120  88.1354402
  25.2813793  89.3905648  87.6594512  26.5625986  89.9496458  88.2406442
  40.0878548  96.4753359  90.8859682  40.9095992  96.0733546  90.6042364
  40.0840951  96.3721593  91.8375798  28.0229484  89.4992699  85.0937878
  27.2260647  89.6111393  85.6121374  27.7955076  89.8379351  84.2278769
  33.8535152  96.0237402  93.0420393  33.9179584  96.4857809  93.8778565
  33.1446075  95.3934767  93.1702703  24.3552442  89.3878610  90.5669392
  24.6060480  90.2725620  90.8326968  24.8911990  89.2083212  89.7944484
  33.5683169  97.6905510  82.9099373  33.4328844  98.5357045  83.3384221
  34.1092982  97.8924787  82.1465307  30.0550509  83.7697090  99.5713728
  29.6617454  83.2163288 100.2461373  30.8716649  84.0807668  99.9620246
  27.0212567  95.2080948  83.4827298  27.5337087  96.0024198  83.6332863
  27.6735279  94.5107238  83.4160900  28.8307451  98.3246704  85.5650052
  29.0074080  99.2464669  85.3771035  29.6264285  98.0105123  85.9944431
  32.9718470  85.1854969  97.1633985  33.7128183  85.7862122  97.0838447
  33.2036393  84.4432606  96.6052028  28.1159808  90.3711336  95.4412215
  28.0013323  89.4696593  95.7419314  27.2604326  90.6175033  95.0897031
  35.1951646  98.3129076  97.0399715  34.7515500  97.5265455  96.7220620
  35.8568859  98.5008227  96.3743606  29.9538767  99.8424878  91.5660394
  30.5046192  99.7141941  90.7937388  29.1150243 100.1419767  91.2155287
  37.2932884  98.5931876  95.0681117  37.2751359  99.4140757  94.5761386
  38.2152804  98.4685951  95.2931258  33.7505938  96.1076006  95.9104625
  34.2834275  95.3464294  95.6803933  33.2220019  95.8149657  96.6528779
  24.9861483  93.5369602  84.2586869  25.8236705  93.9466610  84.0420577
  25.1639751  92.5969044  84.2287063  36.8825916  91.2044683  79.9470702
  36.3672539  91.9749287  80.1859089  36.6103224  90.5309819  80.5703763
  32.2415059  83.6679456  88.4113682  33.1068056  83.4722265  88.0519571
  32.3092568  83.4389808  89.3383038  41.8560190  93.9577037  81.8823875
  41.0789632  93.6188197  81.4379037  42.5351671  93.9629660  81.2078840
  35.1158651  95.2361998  83.4223437  34.5880012  94.5014758  83.1096674
  34.6146153  96.0136674  83.1763405  40.0951497  93.4311019  88.5390483
  39.4375171  94.1210280  88.6270612  40.8991896  93.8207451  88.8824470
  38.9056955  91.7855391  86.5894425  39.4188837  92.4185383  87.0916135
  39.5558179  91.1856587  86.2237785  33.2611251  93.0542208  76.4258410
  32.3538312  92.8231462  76.6249559  33.7582283  92.2579828  76.6132392
  36.1679330 101.7639716  79.3455096  35.4941028 102.0671412  79.9540054
  36.5545152 102.5668796  78.9960553  35.3837786  89.2604847  88.8352766
  34.4660348  89.4819794  88.6774454  35.7997930  89.3351157  87.9764473
  34.4399484  93.1554803  80.9482400  33.5310703  92.8713836  81.0454870
  34.4694568  93.5753882  80.0885707  39.6718752  96.7661393  84.7173568
  39.2181079  95.9252303  84.7738758  39.0412718  97.4022791  85.0548348
  38.1151691  98.6037889  85.6523386  38.4074665  99.1642947  84.9335751
  38.6250311  98.8966450  86.4076545  25.0087655  90.8760317  84.9297602
  24.8112054  90.2829678  84.2048669  24.4534319  90.5712528  85.6473541
  32.9884378  90.7683424  87.0492195  33.0432988  89.8157260  86.9734672
  32.1775580  90.9242863  87.5333494  34.1375572  94.6963547  78.2870479
  33.6995002  93.9799406  77.8276116  34.8786013  94.9239662  77.7255570
  30.9276738  89.3860484  84.8082574  30.1144604  89.6854654  85.2147766
  31.4235732  88.9916172  85.5257057  33.0785316  99.3818240  86.7416839
  33.0361495  99.6079087  85.8125371  33.9948015  99.1481615  86.8902640
  36.5250950  89.8502308  93.6397468  36.8800338  90.0773781  94.4991934
  37.1723081  90.1820685  93.0174724  42.2548687  92.9720744  84.3446797
  42.1166585  93.1622340  83.4167986  41.8984906  93.7340127  84.8014848
  30.4190813  86.9578839  90.4243809  31.0590192  86.8167598  89.7266773
  29.5868343  86.6713352  90.0482411  42.2818066  95.0397271  89.3558069
  42.7154573  94.9472560  90.2041123  42.9949647  95.0154771  88.7178085
  31.1951117  96.2581269  86.5378802  31.9891715  95.7631590  86.3361377
  30.4842809  95.7299133  86.1746507  36.0145961  98.6399365  90.8891169
  36.0682984  99.2090301  91.6568885  35.1460743  98.8101250  90.5245206
  27.5033880  90.4024351  82.6138554  26.5731468  90.3408807  82.8308517
  27.5991352  89.8800304  81.8175196  27.4219429  86.9279164  85.2016796
  27.6826247  87.8424497  85.0925957  28.2436602  86.4603607  85.3513409
  28.8944355  88.3416921  92.3715621  29.5667408  88.1334283  91.7228270
  28.0674141  88.1439007  91.9320853  43.1433616  95.0820972  91.8890954
  43.3369506  95.9866782  92.1350229  43.0434234  94.6228391  92.7229539
  34.7969927  84.9678862  94.3881281  34.1497842  85.6668812  94.2945758
  35.5670942  85.4015006  94.7557530  38.2048725  95.2327714  97.4631835
  38.0534231  95.0038266  96.5461918  38.1953404  96.1898316  97.4763180
  34.9734061  92.8059627  92.4478101  35.9026121  92.9570787  92.2747069
  34.5525091  92.8943648  91.5926748  33.7722393  96.8310291  90.2176639
  33.6333479  96.4629076  91.0902577  32.9836989  97.3457931  90.0460597
  34.3670545 101.9319388  81.5602175  34.5422300 101.4607431  82.3747798
  33.6803333 102.5585154  81.7883436  35.3227608  96.2091894  87.6065477
  34.9877441  96.1692664  88.5023127  34.8231554  95.5436610  87.1335887
  29.2971852  91.6159524  93.1318058  29.1591650  90.8839763  93.7329597
  30.2076775  91.5268424  92.8502246  38.2586800  93.5547929  77.8802536
  37.6415970  92.8294757  77.7835589  37.7903288  94.3157289  77.5369611
  31.9254153  91.3279484  92.6201737  32.6353771  90.6872676  92.5788356
  31.8823461  91.5792378  93.5427918  39.9140931  98.2646837  95.5408317
  39.8553477  97.5806057  94.8738900  40.3160450  99.0065827  95.0888943
  30.6383087  88.3144701  94.4397377  30.1020444  87.8635440  95.0918973
  30.0499795  88.4490610  93.6967841  28.9331630 105.0808751  88.3342036
  29.1728228 105.7127275  89.0121054  28.0900827 104.7296791  88.6207395
  39.9158339  96.2286421  93.7722296  39.0285117  95.8912343  93.8948695
  40.4856890  95.4969452  94.0091062  21.5687486  92.5610513  87.0965348
  22.2558525  92.2472243  86.5086363  21.4135614  93.4651877  86.8232599
  26.3722208  87.4500709  91.5250371  26.2880397  86.8426379  90.7900781
  25.5504914  87.9409727  91.5259868  33.4459492 100.8887873  90.7383540
  33.3729663 101.6942845  91.2502844  33.0036885 101.0879839  89.9131561
  33.2349272 100.1259643  84.2486361  32.4516793 100.6681323  84.3424586
  33.9342017 100.6433623  84.6480602  35.9058175 100.7874707  92.8941698
  36.6186148 101.4222172  92.8217600  35.4148204 100.8838573  92.0781700
  37.6275702  94.6925960  84.4658990  36.6931981  94.8127422  84.2963694
  37.8052371  93.7898427  84.2019000  33.1280890  88.0771656  86.6192251
  32.7578678  87.5242696  87.3073157  33.6239983  87.4729789  86.0667251
  30.9570089  98.5369151  93.7147269  31.6579548  99.1705634  93.8676663
  30.4865204  98.8783882  92.9542908  39.0824485  96.8787100  81.9995176
  39.3584329  96.7643695  82.9089050  38.2128984  96.4804585  81.9607349
  38.7571375  91.0913758  91.5399819  38.1042825  91.3389666  90.8852272
  39.1351755  90.2777896  91.2062297  35.7178549 101.1273451  85.6427990
  35.9000943 100.3095107  86.1055742  36.5411535 101.3441144  85.2052880
  36.0520714 100.0541636  82.9043038  36.5808481  99.5434091  82.2913200
  36.3148934  99.7384167  83.7688571  34.8058948  91.8333569  98.0265856
  34.1299585  91.7327698  98.6968232  35.6286582  91.6772783  98.4901854
  26.5537807  98.0705506  90.6478372  27.1391244  97.3249194  90.7806276
  26.3562645  98.3809462  91.5315036  29.4076462 101.1056753  85.6640814
  28.7386838 101.5902881  85.1804854  29.2689332 101.3525974  86.5784193
  21.1455462  90.6411106  89.3682815  21.1839561  90.1074697  90.1619933
  20.6395755  90.1146311  88.7493792  33.5481731 103.1400497  92.2623472
  34.1000039 103.3032118  93.0272558  33.8887924 103.7304934  91.5903497
  28.5246224  85.4875646  92.8645357  28.5887551  86.3490477  92.4522755
  28.4613344  84.8749648  92.1317716  27.9998497  87.5598779  96.5118391
  28.6270535  87.1775856  97.1255916  27.1426415  87.3412981  96.8774084
  38.3992605  97.9661754  98.1172127  38.9432509  98.5791712  97.6227082
  37.8179450  98.5241333  98.6339140  24.7764039  89.3675208  82.4436746
  25.0717480  88.4585886  82.3903800  23.8752075  89.3462948  82.1217749
  36.6850118 101.0882472  89.2487155  36.5601258 100.2872212  88.7398100
  37.3429209 101.5828666  88.7601125  28.3058286  87.4431205  88.4264295
  27.5844872  88.0567172  88.2871768  29.0951542  87.9788969  88.3480941
  38.7485027  98.8891492  90.8766705  37.8015362  98.7696843  90.8045031
  39.0967800  98.0013990  90.9592966  31.1084600  84.7785631  94.7004947
  31.6319002  85.0247928  95.4631256  30.8896933  85.6105666  94.2808084
  26.5051881  87.0489306  82.5676071  26.1764587  86.1686685  82.3851177
  26.8591252  86.9936974  83.4552461  35.7531460  98.6844208  87.0771057
  35.6056422  97.7560916  87.2578627  36.5784953  98.7064299  86.5928132
  39.3565582  99.5072767  88.1635930  40.2812129  99.3015629  88.0260381
  39.1880885  99.2589168  89.0725271  32.3137145  85.7199326  92.3854617
  31.9733965  84.9207139  92.7875297  31.6076151  86.0201037  91.8131450
  32.9653617  82.8048639  90.8381940  33.7879686  82.3309117  90.7160830
  33.2091680  83.5839122  91.3380626  30.4892196  89.4967759  88.6473919
  30.3436776  89.8108062  89.5398200  30.0117399  90.1152660  88.0944817
  32.3488578  86.4870307  88.6954808  32.3350147  85.5911401  88.3587106
  33.0661007  86.4940971  89.3293094  34.2014709  86.9207648  90.7407936
  33.9432487  87.8424718  90.7392266  33.6699749  86.5238082  91.4308400
  39.1460898 100.0258435  83.5198021  39.3197775  99.4604857  82.7671874
  39.6389789 100.8259330  83.3377511  24.9637858  92.0373104  91.5861580
  24.4191326  92.8132912  91.7181854  25.8417208  92.3843908  91.4280701
  40.1336070  99.3425199  80.6194919  40.8286975  99.9631892  80.8382234
  40.4759220  98.4920550  80.8947297  25.7503880  91.1643000  94.4791737
  25.0085616  91.3125635  95.0656367  25.4296624  91.4251266  93.6158486
  42.0327493  96.7924905  82.1482250  42.5578818  97.1312177  81.4231570
  41.9449846  95.8571920  81.9645385  33.6947542 100.7058978  94.2772127
  34.0034669 100.4608125  95.1494826  34.4923024 100.9105617  93.7890997
  33.7168154 102.8596888  86.5077503  33.2773145 102.3673267  87.2010360
  34.4676271 102.3169856  86.2669579  26.1960493  99.0508429  86.5102131
  27.0218513  98.7512201  86.1300775  25.8454545  98.2816051  86.9591920
  31.1642026  98.4034897  88.5799805  30.5422036  97.7405602  88.2802033
  31.8346893  98.4296029  87.8973453  24.3969098  96.9694755  87.4691065
  23.5601007  96.5416930  87.2875066  24.3692744  97.1627199  88.4061856
  31.2366554  86.8816685  98.1732311  31.2854709  87.7578808  97.7910081
  31.7789068  86.3394078  97.6003954  41.7221400  97.4257808  97.4533448
  40.9316943  97.4081947  96.9137948  41.4854754  97.9646102  98.2082485
  41.8419275  94.2750275  94.7666177  41.8917280  94.1100282  95.7081699
  41.7333198  93.4077534  94.3764057  30.7255533  96.9538820  82.0558266
  30.8743654  97.6374285  81.4024938  31.5321977  96.9343910  82.5707721
  39.1323037  90.2581203  96.0825483  40.0332900  90.1187667  95.7909481
  39.2071011  90.4235657  97.0223661  33.4665842  87.6348057  94.9278670
  32.5969152  87.9281623  94.6561258  33.7025323  88.2188502  95.6485933
  43.3437471  96.6947216  95.0108198  43.0522280  97.0577197  95.8471659
  42.7309603  95.9814224  94.8321530  44.5433154  94.2600096  87.5310768
  45.3780045  94.6989900  87.6948329  44.6792283  93.7838749  86.7119014
  41.5924660  91.8179831  93.4788256  42.0678781  92.0107477  92.6707108
  40.6690225  91.8739017  93.2331640  28.4808166  92.9803998  83.0619334
  28.2354208  92.0766328  83.2599545  28.6504081  92.9821148  82.1198812
  36.1704876  83.8527674  92.4444090  36.6886820  84.5888701  92.1190579
  35.8160009  84.1591668  93.2790849  27.7503814  88.7132355  80.5605496
  27.0573059  88.7876710  79.9045532  27.5055566  87.9492699  81.0827013
  34.2250939  99.4486951  79.5270013  33.6524906 100.0677138  79.0740485
  34.7983732  99.9986312  80.0609935  37.4448199  99.7324101  80.6578595
  38.3778872  99.6669663  80.8611471  37.3571411 100.5680368  80.1993128
  40.0736215  99.0489971  77.6182543  39.9949847  98.7149835  78.5118301
  40.8945882  99.5411739  77.6174015  42.7714406  91.9151711  90.8258861
  42.7390727  90.9767711  91.0118545  43.3815030  91.9935747  90.0924686
  34.6097737  90.7847763  76.8686065  35.5556842  90.6553972  76.9374484
  34.2311982  90.0462425  77.3455494  34.4936430  94.8365510  98.3286722
  35.4139439  95.0144109  98.5226769  34.4586013  93.8921555  98.1766422
  23.7118595  90.0304103  87.2539997  23.3921379  89.1769411  86.9614371
  23.1652023  90.2452681  88.0097964  27.4898502  92.7466544  90.9709504
  27.7084512  93.6783652  90.9897537  27.9024276  92.3874519  91.7564307
  32.3626368  88.3199750 100.3612253  32.2623095  89.2694107 100.2924344
  32.1447910  87.9917989  99.4888323  23.5806855  93.6507015  89.2233119
  22.8870326  93.2360968  88.7103073  24.3279846  93.6927551  88.6266538
  32.2257638  91.7496889  99.1777314  31.7424719  92.5497249  99.3841203
  32.3118577  91.7604834  98.2244758  25.4943597  93.5825269  87.0999134
  25.4714285  93.6812956  86.1481017  25.8044234  94.4290419  87.4216300
  28.1530975  95.6401424  91.2145748  29.1074229  95.6085366  91.1475680
  27.9543499  95.1792047  92.0295974  28.7430357  94.2102540  93.7816546
  29.5623246  94.7046618  93.8051383  29.0167165  93.2934508  93.7534113
  26.5081204 101.1821043  88.2315946  26.3735672 100.4221444  87.6653944
  26.0913266 101.9061943  87.7644735  37.6440167  96.3657967  77.2392521
  38.3476017  96.5707969  77.8550177  36.9202816  96.9334728  77.5041605
  38.4737977  92.1167828  83.3594791  38.4173179  92.5736379  82.5202424
  39.0266320  91.3558512  83.1817634  29.6650330 102.0790360  88.4434388
  29.5482714 103.0235793  88.3413079  28.8442776 101.7763922  88.8320188
  39.5526864  96.8040496  79.2890981  40.3872468  96.3721694  79.1068456
  39.3911207  96.6322509  80.2167876  39.2072757  93.3072609  80.6547321
  39.1521560  93.1416881  79.7135765  38.5818812  94.0148642  80.8109510
  23.9965272  88.5440673  94.4808743  24.6424135  88.0339627  94.9695968
  23.7882423  89.2809355  95.0552168  36.5218664  95.6121521  99.9800883
  37.3909823  95.7862173  99.6187518  36.0425415  96.4315938  99.8576613
  30.6904844 102.7318622  91.6590317  31.5932091 102.7642232  91.9756812
  30.4642214 101.8019073  91.6736653  32.4458446 101.4849609  88.3200396
  31.4954077 101.4851470  88.2064768  32.7490932 100.7382343  87.8036430
  28.3362763  85.6908291  98.5783757  29.1994224  85.3345095  98.7887082
  27.7628173  85.3522185  99.2659161  48.1811140 107.3210147  89.3846158
  48.8189549 107.2016894  88.6809498  48.0631982 108.2690991  89.4434110
  44.9900846 107.2737575  89.3207683  44.6519357 107.1578640  88.4328217
  45.8590614 106.8728740  89.3008689  40.8487662 109.1273051  85.3104574
  40.2852527 109.0362988  84.5420861  40.7340057 108.3072956  85.7907066
  45.4720629 108.4272427  95.2793888  45.4609270 108.0325225  94.4074392
  45.6341268 107.6938499  95.8727660  38.3952093 110.6224243  88.1488794
  39.1873385 110.2815068  87.7335093  38.6348744 110.7319218  89.0690947
  46.4287220 112.7944019  80.6219038  45.7775200 113.3798100  80.2353052
  47.2231583 113.3250214  80.6814076  40.3542847 109.8833156  81.0206173
  41.1273723 109.3362143  80.8819049  40.7068246 110.7477406  81.2320634
  42.1927890 111.2109539  94.2273072  41.9017756 112.1155169  94.1119738
  42.8284874 111.2526066  94.9417142  43.1184097 108.5886387  90.8174432
  43.7147669 108.3642409  90.1031395  43.1759068 107.8471133  91.4199880
  42.6909125 106.0425822  78.6524623  42.9434646 105.5207344  77.8908086
  41.7533684 105.8791968  78.7551306  47.7352408 105.0461601  86.4599366
  48.5215497 104.6281024  86.1089783  47.9991112 105.9507693  86.6281014
  47.9062485 110.4834451  81.1588023  47.2708318 110.5569078  81.8708927
  47.5759892 111.0728050  80.4807102  53.1360835 104.9836834  87.3632344
  53.8686007 104.4136051  87.5970174  52.3800191 104.5958434  87.8038850
  42.4105414 107.9453928  80.8548998  42.2941672 107.2698832  81.5230082
  42.5207674 107.4586302  80.0381151  44.7536955 107.4064075  84.5595687
  44.3895162 106.8794696  85.2708608  45.6104071 107.0162545  84.3862172
  50.6586255  98.6958408  91.8226953  50.3269580  99.5653819  91.5988168
  50.0631869  98.3794692  92.5020983  44.3942442 102.4353975  79.5557035
  44.5616844 103.3034212  79.9227507  44.2039611 102.5981257  78.6318325
  47.1517775 110.8970954  91.2222866  46.8518498 111.7995993  91.1138673
  46.8068835 110.6303137  92.0744019  40.6030257 107.3484751  87.2559570
  39.6780753 107.2160965  87.4637262  40.8514670 108.1278970  87.7529513
  50.5514919 103.4153494  88.9020303  49.6431796 103.3468903  88.6079064
  50.5002515 103.8925439  89.7302129  44.3731663 104.8911633  80.5403702
  44.2531288 105.3368683  81.3789183  43.6784251 105.2396950  79.9817240
  37.9639068 106.9918024  88.0903359  38.0931449 107.2452503  89.0042771
  37.2836519 107.5845732  87.7708014  42.1338555 117.6615274  84.1893834
  42.0562585 118.6123099  84.2682314  41.5300198 117.3161147  84.8468760
  44.6255785 104.8343140  96.8455200  43.8489119 105.3937060  96.8358065
  45.2646348 105.3199923  97.3670071  52.4176565 101.6169933  90.6798177
  51.7750945 101.9102466  90.0337972  51.9131494 101.5022853  91.4851374
  50.0716729 105.3633106  81.3684036  50.9834585 105.5960493  81.1931734
  49.5626376 105.9470150  80.8059115  42.8802157 107.6428593  96.4073167
  43.6216841 108.1813637  96.1307991  42.1739142 108.2694882  96.5644719
  48.3557497 109.7857734  95.0045329  48.7640853 109.3440144  94.2599961
  47.6334758 109.2110361  95.2579522  44.7088567 104.7230340  92.3778886
  45.5549762 105.1469754  92.5213535  44.6487204 104.0663965  93.0717449
  48.6786311 110.3458924  88.7597618  48.0495174 110.5104638  88.0573686
  48.2911973 110.7600534  89.5308582  52.5575543 111.2813362  86.1141982
  51.8726581 111.6612263  85.5639015  52.6419392 111.8908689  86.8473929
  47.8588012 102.3834709  94.0360059  47.6148944 103.1376769  93.4994335
  48.1347942 102.7620056  94.8707307  49.8126475 108.9273321  92.7137325
  50.0243370 109.5705081  92.0371706  49.7656223 108.0935638  92.2459255
  47.4152704 101.5391142  89.6173897  46.5537183 101.8372395  89.9090635
  47.4415138 101.7561541  88.6854930  44.2314273 110.0833332  86.0247703
  44.6952619 110.3621035  85.2352325  43.9671071 109.1816777  85.8420794
  41.1238354 109.6304814  88.9627466  41.6939711 110.0592082  88.3244951
  41.7146466 109.3487399  89.6611652  43.1683159 106.2056485  82.8337268
  43.8707202 106.6577528  83.3011194  42.8363788 105.5640304  83.4617161
  41.6163521 104.7968241  97.2088477  40.9862181 105.4784522  97.4423874
  41.5099609 104.6851323  96.2641616  36.9108493 104.4640037  88.1354402
  36.1207547 104.7197566  87.6594512  37.4019740 105.2788375  88.2406442
  50.9272303 111.8045277  90.8859682  51.7489746 111.4025464  90.6042364
  50.9234706 111.7013511  91.8375798  38.8623238 104.8284617  85.0937878
  38.0654402 104.9403311  85.6121374  38.6348831 105.1671269  84.2278769
  44.6928906 111.3529320  93.0420393  44.7573339 111.8149727  93.8778565
  43.9839830 110.7226685  93.1702703  35.1946196 104.7170528  90.5669392
  35.4454234 105.6017538  90.8326968  35.7305744 104.5375129  89.7944484
  59.0178296 108.1484025  87.2344654  58.2642004 107.5791423  87.0788658
  59.1525837 108.1146690  88.1815289  44.4076924 113.0197427  82.9099373
  44.2722599 113.8648963  83.3384221  44.9486736 113.2216705  82.1465307
  40.8944263  99.0989007  99.5713728  40.5011209  98.5455206 100.2461373
  41.7110404  99.4099586  99.9620246  37.8606321 110.5372865  83.4827298
  38.3730842 111.3316116  83.6332863  38.5129034 109.8399156  83.4160900
  39.6701206 113.6538622  85.5650052  39.8467834 114.5756586  85.3771035
  40.4658039 113.3397041  85.9944431  43.8112224 100.5146886  97.1633985
  44.5521938 101.1154039  97.0838447  44.0430147  99.7724524  96.6052028
  38.9553562 105.7003254  95.4412215  38.8407078 104.7988511  95.7419314
  38.0998080 105.9466950  95.0897031  46.0345400 113.6420994  97.0399715
  45.5909254 112.8557372  96.7220620  46.6962614 113.8300144  96.3743606
  40.7932521 115.1716795  91.5660394  41.3439946 115.0433859  90.7937388
  39.9543997 115.4711684  91.2155287  48.1326638 113.9223794  95.0681117
  48.1145114 114.7432675  94.5761386  49.0546558 113.7977869  95.2931258
  44.5899692 111.4367923  95.9104625  45.1228029 110.6756211  95.6803933
  44.0613773 111.1441575  96.6528779  47.7569387  96.5427989  91.4398267
  47.4133657  97.4329631  91.3637377  48.1248350  96.3529647  90.5767852
  35.8255238 108.8661520  84.2586869  36.6630460 109.2758528  84.0420577
  36.0033506 107.9260962  84.2287063  47.7219670 106.5336600  79.9470702
  47.2066293 107.3041205  80.1859089  47.4496978 105.8601737  80.5703763
  45.3066781 101.3786301  85.0055940  44.4508377 100.9893152  84.8261579
  45.7193733 101.4578262  84.1455726  46.8365928  98.9132644  89.4047500
  46.3330723  98.8762780  88.5915305  47.1296535  99.8225387  89.4644157
  43.0808814  98.9971374  88.4113682  43.9461810  98.8014183  88.0519571
  43.1486322  98.7681726  89.3383038  52.6953944 109.2868955  81.8823875
  51.9183387 108.9480114  81.4379037  53.3745425 109.2921578  81.2078840
  47.5105973 104.4063692  81.7730483  47.2056109 104.7209842  82.6240626
  48.4636415 104.4845112  81.8157816  45.9552405 110.5653916  83.4223437
  45.4273767 109.8306675  83.1096674  45.4539908 111.3428592  83.1763405
  50.9345251 108.7602936  88.5390483  50.2768926 109.4502198  88.6270612
  51.7385650 109.1499368  88.8824470  40.6871133 101.2273582  85.7830048
  41.2614885 101.0048764  85.0503241  41.2742115 101.2962277  86.5358650
  49.7450710 107.1147309  86.5894425  50.2582592 107.7477301  87.0916135
  50.3951934 106.5148504  86.2237785  41.0140720 103.2578043  79.8025934
  40.1778032 103.5952730  80.1235208  40.8745489 103.1227023  78.8653071
  42.9893800  98.1014831  84.5105118  42.3358213  97.7863848  83.8861733
  42.9474275  97.4790571  85.2364941  44.1005005 108.3834126  76.4258410
  43.1932067 108.1523379  76.6249559  44.5976037 107.5871745  76.6132392
  47.0073084 117.0931633  79.3455096  46.3334783 117.3963330  79.9540054
  47.3938906 117.8960714  78.9960553  46.2231541 104.5896764  88.8352766
  45.3054102 104.8111711  88.6774454  46.6391684 104.6643075  87.9764473
  47.0066588 105.9888180  83.9655446  47.7538407 106.5009577  83.6562568
  47.2758178 105.6672233  84.8259839  45.2793239 108.4846721  80.9482400
  44.3704458 108.2005754  81.0454870  45.3088322 108.9045799  80.0885707
  50.5112506 112.0953310  84.7173568  50.0574833 111.2544220  84.7738758
  49.8806473 112.7314709  85.0548348  49.4545426 103.0245296  85.9474235
  48.7168182 102.5122683  86.2784478  49.7072199 102.5845678  85.1357512
  48.9545445 113.9329807  85.6523386  49.2468420 114.4934864  84.9335751
  49.4644066 114.2258368  86.4076545  49.5557053  95.8021548  86.5416004
  49.8615930  94.9418912  86.2541919  50.2809658  96.3939169  86.3414998
  35.8481409 106.2052235  84.9297602  35.6505809 105.6121596  84.2048669
  35.2928073 105.9004445  85.6473541  43.8278133 106.0975341  87.0492195
  43.8826742 105.1449178  86.9734672  43.0169335 106.2534781  87.5333494
  44.9769326 110.0255465  78.2870479  44.5388756 109.3091323  77.8276116
  45.7179767 110.2531579  77.7255570  41.7670493 104.7152401  84.8082574
  40.9538358 105.0146572  85.2147766  42.2629487 104.3208090  85.5257057
  43.9179071 114.7110158  86.7416839  43.8755249 114.9371004  85.8125371
  44.8341769 114.4773533  86.8902640  47.3644704 105.1794226  93.6397468
  47.7194092 105.4065699  94.4991934  48.0116836 105.5112602  93.0174724
  53.0942441 108.3012662  84.3446797  52.9560340 108.4914258  83.4167986
  52.7378660 109.0632044  84.8014848  41.2584567 102.2870757  90.4243809
  41.8983947 102.1459516  89.7266773  40.4262098 102.0005270  90.0482411
  53.1211821 110.3689189  89.3558069  53.5548328 110.2764478  90.2041123
  53.8343402 110.3446689  88.7178085  42.0344871 111.5873187  86.5378802
  42.8285470 111.0923507  86.3361377  41.3236564 111.0591050  86.1746507
  46.8539716 113.9691283  90.8891169  46.9076738 114.5382219  91.6568885
  45.9854497 114.1393168  90.5245206  38.3427635 105.7316269  82.6138554
  37.4125223 105.6700724  82.8308517  38.4385107 105.2092222  81.8175196
  38.2613184 102.2571082  85.2016796  38.5220001 103.1716415  85.0925957
  39.0830356 101.7895524  85.3513409  39.7338109 103.6708839  92.3715621
  40.4061163 103.4626201  91.7228270  38.9067896 103.4730925  91.9320853
  53.9827370 110.4112889  91.8890954  54.1763261 111.3158700  92.1350229
  53.8827989 109.9520308  92.7229539  45.6363681 100.2970780  94.3881281
  44.9891596 100.9960729  94.2945758  46.4064697 100.7306924  94.7557530
  49.0442479 110.5619632  97.4631835  48.8927986 110.3330184  96.5461918
  49.0347159 111.5190233  97.4763180  45.8127816 108.1351545  92.4478101
  46.7419876 108.2862704  92.2747069  45.3918846 108.2235566  91.5926748
  44.6116147 112.1602209  90.2176639  44.4727233 111.7920994  91.0902577
  43.8230744 112.6749849  90.0460597  45.2064299 117.2611306  81.5602175
  45.3816055 116.7899349  82.3747798  44.5197087 117.8877072  81.7883436
  46.1621362 111.5383812  87.6065477  45.8271195 111.4984582  88.5023127
  45.6625308 110.8728528  87.1335887  40.1365606 106.9451442  93.1318058
  39.9985404 106.2131681  93.7329597  41.0470530 106.8560342  92.8502246
  49.0980554 108.8839846  77.8802536  48.4809725 108.1586674  77.7835589
  48.6297043 109.6449206  77.5369611  42.7647907 106.6571401  92.6201737
  43.4747526 106.0164593  92.5788356  42.7217215 106.9084296  93.5427918
  50.7534686 113.5938755  95.5408317  50.6947232 112.9097975  94.8738900
  51.1554204 114.3357745  95.0888943  41.4776841 103.6436619  94.4397377
  40.9414198 103.1927358  95.0918973  40.8893550 103.7782528  93.6967841
  40.8879100 103.1025271  77.0023841  40.0108566 102.9814071  76.6386087
  41.3636853 102.3111349  76.7502729  50.7552093 111.5578338  93.7722296
  49.8678872 111.2204260  93.8948695  51.3250644 110.8261370  94.0091062
  32.4081240 107.8902430  87.0965348  33.0952280 107.5764160  86.5086363
  32.2529369 108.7943795  86.8232599  37.2115962 102.7792627  91.5250371
  37.1274151 102.1718296  90.7900781  36.3898669 103.2701645  91.5259868
  44.2853246 116.2179791  90.7383540  44.2123418 117.0234762  91.2502844
  43.8430640 116.4171757  89.9131561  44.0743026 115.4551561  84.2486361
  43.2910548 115.9973241  84.3424586  44.7735771 115.9725541  84.6480602
  47.3839676 101.2646190  86.8920566  47.8808376 100.5116153  86.5721637
  46.6126658 101.3010507  86.3263776  55.2369434 106.9686556  88.5338858
  55.2259310 107.8511271  88.1632791  54.3686813 106.6158107  88.3393395
  46.7451930 116.1166625  92.8941698  47.4579902 116.7514090  92.8217600
  46.2541959 116.2130491  92.0781700  48.4669457 110.0217878  84.4658990
  47.5325736 110.1419340  84.2963694  48.6446125 109.1190344  84.2019000
  43.9674645 103.4063573  86.6192251  43.5972432 102.8534614  87.3073157
  44.4633737 102.8021707  86.0667251  51.8542008 105.8635197  85.0009024
  52.3202460 106.6963188  84.9269327  52.3049509 105.3980178  85.7054282
  41.7963843 113.8661068  93.7147269  42.4973303 114.4997551  93.8676663
  41.3258958 114.2075800  92.9542908  49.9218239 112.2079018  81.9995176
  50.1978083 112.0935613  82.9089050  49.0522738 111.8096503  81.9607349
  49.8258671  98.2315784  89.0399925  48.9121751  98.4620011  89.2082132
  50.2551772  98.3154228  89.8913958  49.5965129 106.4205676  91.5399819
  48.9436580 106.6681583  90.8852272  49.9745509 105.6069814  91.2062297
  46.5572303 116.4565369  85.6427990  46.7394698 115.6387025  86.1055742
  47.3805289 116.6733061  85.2052880  46.8914469 115.3833554  82.9043038
  47.4202235 114.8726009  82.2913200  47.1542688 115.0676084  83.7688571
  45.6452702 107.1625487  98.0265856  44.9693339 107.0619616  98.6968232
  46.4680336 107.0064701  98.4901854  37.3931562 113.3997423  90.6478372
  37.9784998 112.6541111  90.7806276  37.1956400 113.7101380  91.5315036
  40.2470217 116.4348671  85.6640814  39.5780592 116.9194798  85.1804854
  40.1083086 116.6817891  86.5784193  31.9849216 105.9703024  89.3682815
  32.0233316 105.4366614  90.1619933  31.4789509 105.4438229  88.7493792
  44.3875485 118.4692414  92.2623472  44.9393793 118.6324036  93.0272558
  44.7281679 119.0596852  91.5903497  39.3639979 100.8167564  92.8645357
  39.4281305 101.6782395  92.4522755  39.3007099 100.2041566  92.1317716
  38.8392251 102.8890697  96.5118391  39.4664290 102.5067774  97.1255916
  37.9820170 102.6704899  96.8774084  49.2386360 113.2953672  98.1172127
  49.7826264 113.9083630  97.6227082  48.6573205 113.8533250  98.6339140
  35.6157794 104.6967126  82.4436746  35.9111235 103.7877804  82.3903800
  34.7145830 104.6754865  82.1217749  47.5243873 116.4174390  89.2487155
  47.3995012 115.6164130  88.7398100  48.1822964 116.9120583  88.7601125
  39.1452041 102.7723122  88.4264295  38.4238627 103.3859090  88.2871768
  39.9345297 103.3080887  88.3480941  49.5878781 114.2183410  90.8766705
  48.6409117 114.0988761  90.8045031  49.9361554 113.3305908  90.9592966
  41.9478354 100.1077549  94.7004947  42.4712756 100.3539845  95.4631256
  41.7290688 100.9397584  94.2808084  37.3445635 102.3781223  82.5676071
  37.0158342 101.4978602  82.3851177  37.6985006 102.3228892  83.4552461
  46.5925214 114.0136126  87.0771057  46.4450177 113.0852834  87.2578627
  47.4178708 114.0356217  86.5928132  40.4587459 102.6654193  82.9351549
  40.7983531 103.1940114  82.2130157  40.9059579 103.0034599  83.7110116
  50.1959336 114.8364685  88.1635930  51.1205884 114.6307546  88.0260381
  50.0274640 114.5881086  89.0725271  43.1530899 101.0491244  92.3854617
  42.8127720 100.2499057  92.7875297  42.4469906 101.3492955  91.8131450
  43.8047371  98.1340556  90.8381940  44.6273441  97.6601035  90.7160830
  44.0485435  98.9131040  91.3380626  42.4455606 101.1628815  81.1344842
  43.1663968 101.5410068  80.6308559  41.8220910 101.8817692  81.2379820
  46.5886729 101.8673964  82.0703174  46.8050343 102.7498602  81.7692002
  46.1080796 101.4760177  81.3408816  41.3285950 104.8259677  88.6473919
  41.1830531 105.1399980  89.5398200  40.8511154 105.4444577  88.0944817
  43.1882333 101.8162225  88.6954808  43.1743902 100.9203318  88.3587106
  43.9054761 101.8232889  89.3293094  45.0408464 102.2499565  90.7407936
  44.7826241 103.1716636  90.7392266  44.5093504 101.8530000  91.4308400
  49.9854652 115.3550352  83.5198021  50.1591530 114.7896775  82.7671874
  50.4783544 116.1551247  83.3377511  35.8031612 107.3665021  91.5861580
  35.2585080 108.1424829  91.7181854  36.6810962 107.7135826  91.4280701
  42.5919229 100.6976605  83.9642378  42.7135140  99.7693251  84.1633266
  42.3021271 100.7115291  83.0520694  45.4610419  98.3831516  87.1009098
  45.4832116  98.4470849  86.1461078  45.8778478  97.5436024  87.2949604
  55.8394044 108.1186775  85.1388321  56.2825190 107.3694100  84.7407444
  54.9620554 108.1096912  84.7562053  50.9729825 114.6717117  80.6194919
  51.6680729 115.2923809  80.8382234  51.3152975 113.8212468  80.8947297
  36.5897634 106.4934918  94.4791737  35.8479370 106.6417553  95.0656367
  36.2690378 106.7543183  93.6158486  52.8721248 112.1216822  82.1482250
  53.3972572 112.4604095  81.4231570  52.7843601 111.1863838  81.9645385
  44.5341297 116.0350896  94.2772127  44.8428423 115.7900043  95.1494826
  45.3316779 116.2397534  93.7890997  44.5561909 118.1888806  86.5077503
  44.1166899 117.6965184  87.2010360  45.3070026 117.6461773  86.2669579
  37.0354248 114.3800346  86.5102131  37.8612268 114.0804118  86.1300775
  36.6848300 113.6107969  86.9591920  42.0035781 113.7326815  88.5799805
  41.3815790 113.0697520  88.2802033  42.6740648 113.7587946  87.8973453
  35.2362853 112.2986673  87.4691065  34.3994761 111.8708847  87.2875066
  35.2086498 112.4919116  88.4061856  42.0760308 102.2108603  98.1732311
  42.1248464 103.0870725  97.7910081  42.6182823 101.6685996  97.6003954
  52.5615154 112.7549726  97.4533448  51.7710698 112.7373865  96.9137948
  52.3248509 113.2938020  98.2082485  52.6813029 109.6042192  94.7666177
  52.7311034 109.4392200  95.7081699  52.5726952 108.7369451  94.3764057
  41.5649288 112.2830738  82.0558266  41.7137408 112.9666202  81.4024938
  42.3715731 112.2635828  82.5707721  49.9716791 105.5873120  96.0825483
  50.8726654 105.4479585  95.7909481  50.0464766 105.7527575  97.0223661
  44.3059597 102.9639975  94.9278670  43.4362906 103.2573541  94.6561258
  44.5419077 103.5480420  95.6485933  54.1831226 112.0239134  95.0108198
  53.8916034 112.3869114  95.8471659  53.5703357 111.3106142  94.8321530
  55.3826908 109.5892014  87.5310768  56.2173800 110.0281818  87.6948329
  55.5186037 109.1130667  86.7119014  52.4318414 107.1471748  93.4788256
  52.9072536 107.3399395  92.6707108  51.5083980 107.2030934  93.2331640
  39.3201921 108.3095916  83.0619334  39.0747963 107.4058246  83.2599545
  39.4897835 108.3113066  82.1198812  47.0098631  99.1819592  92.4444090
  47.5280574  99.9180619  92.1190579  46.6553763  99.4883585  93.2790849
  38.5897568 104.0424273  80.5605496  37.8966813 104.1168628  79.9045532
  38.3449320 103.2784617  81.0827013  47.2611225  95.6019874  87.9644987
  47.5412979  94.9343064  88.5905413  48.0461832  95.7948970  87.4519650
  45.0644693 114.7778868  79.5270013  44.4918660 115.3969056  79.0740485
  45.6377487 115.3278230  80.0609935  51.1320083 104.0237508  91.7116562
  52.0837506 104.1235606  91.7328786  50.9623534 103.2315777  92.2214646
  49.1534463 101.1093092  91.8975963  48.5584395 101.3898104  91.2022451
  48.8684159 101.5986993  92.6692704  48.2841953 115.0616019  80.6578595
  49.2172626 114.9961580  80.8611471  48.1965166 115.8972285  80.1993128
  50.9129970 114.3781889  77.6182543  50.8343601 114.0441752  78.5118301
  51.7339637 114.8703657  77.6174015  53.6108161 107.2443628  90.8258861
  53.5784481 106.3059629  91.0118545  54.2208785 107.3227665  90.0924686
  45.4491492 106.1139681  76.8686065  46.3950597 105.9845889  76.9374484
  45.0705737 105.3754343  77.3455494  53.7602649 104.0354672  90.8717145
  53.2441698 103.2513128  90.6847073  54.6442598 103.7073388  91.0363664
  51.4213376  97.7795687  86.8312957  51.2238197  97.4710775  87.7156289
  52.0313082  98.5057326  86.9610887  59.4284711 108.3059635  89.9664898
  60.1588099 108.0444923  90.5272602  58.8191656 107.5688357  90.0066966
  57.5100008 106.4467498  90.5639349  56.7833171 106.3123463  89.9555841
  57.0947295 106.7544326  91.3696067  45.3330184 110.1657427  98.3286722
  46.2533194 110.3436026  98.5226769  45.2979767 109.2213473  98.1766422
  43.6334409 104.0389658  76.8040951  42.7265864 103.7422770  76.8803664
  43.9110390 103.7419476  75.9375237  34.5512349 105.3596021  87.2539997
  34.2315134 104.5061329  86.9614371  34.0045778 105.5744599  88.0097964
  38.3292257 108.0758462  90.9709504  38.5478267 109.0075570  90.9897537
  38.7418031 107.7166436  91.7564307  45.2496475  98.5826547  82.9585192
  44.4397203  98.2373632  83.3340438  45.9380892  98.2734091  83.5472804
  47.1787023  97.6604594  84.5809489  47.7318062  98.0800047  85.2399512
  47.4157109  96.7340342  84.6232445  43.2020122 103.6491668 100.3612253
  43.1016849 104.5986025 100.2924344  42.9841664 103.3209907  99.4888323
  42.4033194 100.8976593  76.9452930  43.2652358 101.2231491  77.2048747
  42.5883538 100.1108089  76.4325996  34.4200609 108.9798932  89.2233119
  33.7264081 108.5652885  88.7103073  35.1673600 109.0219469  88.6266538
  50.5565830  99.7705119  84.0888153  49.9764499 100.4289923  83.7066205
  50.2901763  98.9482464  83.6775570  49.0069396  99.1710177  86.2909473
  49.5069175  99.2826711  85.4823792  49.6505004  98.8671230  86.9310282
  43.0651392 107.0788807  99.1777314  42.5818474 107.8789167  99.3841203
  43.1512331 107.0896751  98.2244758  36.3337352 108.9117186  87.0999134
  36.3108040 109.0104873  86.1481017  36.6437988 109.7582337  87.4216300
  38.9924730 110.9693341  91.2145748  39.9467983 110.9377284  91.1475680
  38.7937253 110.5083965  92.0295974  39.5824112 109.5394457  93.7816546
  40.4017001 110.0338536  93.8051383  39.8560920 108.6226425  93.7534113
  49.3390708 101.9305210  83.1444501  48.4516563 102.2154860  82.9264696
  49.7544697 101.7698973  82.2971778  52.6905244 101.9551731  86.8598840
  53.4665634 102.4448183  87.1323457  51.9653378 102.3809785  87.3170710
  55.1277803 102.6679350  87.9172781  55.7222294 102.4275086  87.2066089
  55.2004387 101.9486480  88.5446317  37.3474959 116.5112961  88.2315946
  37.2129426 115.7513362  87.6653944  36.9307021 117.2353861  87.7644735
  48.4833922 111.6949884  77.2392521  49.1869772 111.8999887  77.8550177
  47.7596570 112.2626646  77.5041605  49.3131732 107.4459746  83.3594791
  49.2566933 107.9028297  82.5202424  49.8660074 106.6850430  83.1817634
  53.1236538 103.2349477  84.1844911  52.8673472 102.8346113  85.0153118
  52.4989406 103.9493271  84.0595050  57.4348876 105.9745551  86.6916202
  56.8748434 106.0438740  87.4647764  56.8292379 105.7986535  85.9715698
  40.5044084 117.4082278  88.4434388  40.3876469 118.3527710  88.3413079
  39.6836531 117.1055839  88.8320188  50.3920619 112.1332413  79.2890981
  51.2266223 111.7013612  79.1068456  50.2304962 111.9614427  80.2167876
  50.0466511 108.6364527  80.6547321  49.9915315 108.4708798  79.7135765
  49.4212566 109.3440560  80.8109510  34.8359026 103.8732591  94.4808743
  35.4817890 103.3631545  94.9695968  34.6276177 104.6101273  95.0552168
  47.3612418 110.9413439  99.9800883  48.2303578 111.1154091  99.6187518
  46.8819170 111.7607855  99.8576613  43.3562637  98.1372636  80.2332639
  43.3441306  99.0814476  80.3900910  44.2486058  97.9542781  79.9392100
  41.5298599 118.0610540  91.6590317  42.4325845 118.0934150  91.9756812
  41.3035969 117.1310991  91.6736653  43.2852201 116.8141526  88.3200396
  42.3347832 116.8143388  88.2064768  43.5884687 116.0674261  87.8036430
  39.1756517 101.0200208  98.5783757  40.0387979 100.6637013  98.7887082
  38.6021928 100.6814103  99.2659161  59.0204894 122.6502065  89.3846158
  59.6583304 122.5308812  88.6809498  58.9025737 123.5982909  89.4434110
  55.8294600 122.6029493  89.3207683  55.4913112 122.4870557  88.4328217
  56.6984369 122.2020658  89.3008689  56.3114383 123.7564344  95.2793888
  56.3003024 123.3617143  94.4074392  56.4735023 123.0230417  95.8727660
  53.5302880 121.3717740  78.6524623  53.7828400 120.8499261  77.8908086
  52.5927439 121.2083886  78.7551306  58.5746163 120.3753518  86.4599366
  59.3609252 119.9572942  86.1089783  58.8384867 121.2799611  86.6281014
  63.9754590 120.3128752  87.3632344  64.7079762 119.7427968  87.5970174
  63.2193945 119.9250352  87.8038850  55.5930709 122.7355993  84.5595687
  55.2288917 122.2086614  85.2708608  56.4497825 122.3454462  84.3862172
  61.4980010 114.0250326  91.8226953  61.1663335 114.8945737  91.5988168
  60.9025623 113.7086610  92.5020983  55.2336196 117.7645893  79.5557035
  55.4010599 118.6326129  79.9227507  55.0433365 117.9273175  78.6318325
  61.3908673 118.7445412  88.9020303  60.4825551 118.6760820  88.6079064
  61.3396269 119.2217357  89.7302129  55.2125417 120.2203550  80.5403702
  55.0925042 120.6660601  81.3789183  54.5178006 120.5688868  79.9817240
  55.4649539 120.1635058  96.8455200  54.6882873 120.7228978  96.8358065
  56.1040102 120.6491840  97.3670071  63.2570320 116.9461850  90.6798177
  62.6144700 117.2394383  90.0337972  62.7525248 116.8314771  91.4851374
  60.9110483 120.6925024  81.3684036  61.8228339 120.9252410  81.1931734
  60.4020130 121.2762068  80.8059115  59.1951251 125.1149651  95.0045329
  59.6034607 124.6732062  94.2599961  58.4728513 124.5402279  95.2579522
  55.5482321 120.0522258  92.3778886  56.3943516 120.4761672  92.5213535
  55.4880959 119.3955882  93.0717449  58.6981766 117.7126626  94.0360059
  58.4542698 118.4668687  93.4994335  58.9741697 118.0911974  94.8707307
  60.6520229 124.2565239  92.7137325  60.8637124 124.8996999  92.0371706
  60.6049977 123.4227555  92.2459255  58.2546458 116.8683059  89.6173897
  57.3930937 117.1664313  89.9090635  58.2808893 117.0853458  88.6854930
  54.0076914 121.5348402  82.8337268  54.7100957 121.9869446  83.3011194
  53.6757542 120.8932221  83.4617161  52.4557275 120.1260159  97.2088477
  51.8255936 120.8076440  97.4423874  52.3493363 120.0143241  96.2641616
  47.7502248 119.7931955  88.1354402  46.9601302 120.0489484  87.6594512
  48.2413495 120.6080293  88.2406442  49.7016993 120.1576534  85.0937878
  48.9048156 120.2695229  85.6121374  49.4742585 120.4963187  84.2278769
  69.8572050 123.4775943  87.2344654  69.1035759 122.9083341  87.0788658
  69.9919591 123.4438607  88.1815289  51.7338018 114.4280925  99.5713728
  51.3404963 113.8747123 100.2461373  52.5504158 114.7391503  99.9620246
  54.6505979 115.8438804  97.1633985  55.3915692 116.4445957  97.0838447
  54.8823902 115.1016442  96.6052028  49.7947317 121.0295171  95.4412215
  49.6800832 120.1280428  95.7419314  48.9391835 121.2758868  95.0897031
  58.5963142 111.8719907  91.4398267  58.2527411 112.7621549  91.3637377
  58.9642104 111.6821565  90.5767852  58.5613425 121.8628518  79.9470702
  58.0460048 122.6333123  80.1859089  58.2890733 121.1893654  80.5703763
  56.1460536 116.7078219  85.0055940  55.2902132 116.3185069  84.8261579
  56.5587487 116.7870180  84.1455726  57.6759682 114.2424562  89.4047500
  57.1724478 114.2054697  88.5915305  57.9690289 115.1517305  89.4644157
  53.9202568 114.3263292  88.4113682  54.7855565 114.1306100  88.0519571
  53.9880077 114.0973644  89.3383038  63.5347699 124.6160873  81.8823875
  62.7577141 124.2772032  81.4379037  64.2139180 124.6213496  81.2078840
  58.3499728 119.7355610  81.7730483  58.0449863 120.0501759  82.6240626
  59.3030170 119.8137030  81.8157816  61.7739006 124.0894854  88.5390483
  61.1162680 124.7794115  88.6270612  62.5779405 124.4791286  88.8824470
  51.5264887 116.5565500  85.7830048  52.1008639 116.3340681  85.0503241
  52.1135870 116.6254194  86.5358650  60.5844464 122.4439227  86.5894425
  61.0976346 123.0769218  87.0916135  61.2345688 121.8440422  86.2237785
  51.8534474 118.5869961  79.8025934  51.0171787 118.9244647  80.1235208
  51.7139244 118.4518941  78.8653071  53.8287555 113.4306749  84.5105118
  53.1751967 113.1155766  83.8861733  53.7868029 112.8082489  85.2364941
  54.9398760 123.7126044  76.4258410  54.0325821 123.4815297  76.6249559
  55.4369792 122.9163663  76.6132392  57.0625295 119.9188682  88.8352766
  56.1447857 120.1403629  88.6774454  57.4785439 119.9934993  87.9764473
  57.8460343 121.3180098  83.9655446  58.5932162 121.8301495  83.6562568
  58.1151933 120.9964151  84.8259839  56.1186993 123.8138639  80.9482400
  55.2098212 123.5297671  81.0454870  56.1482077 124.2337717  80.0885707
  60.2939180 118.3537214  85.9474235  59.5561937 117.8414600  86.2784478
  60.5465954 117.9137596  85.1357512  60.3950807 111.1313466  86.5416004
  60.7009684 110.2710830  86.2541919  61.1203412 111.7231086  86.3414998
  54.6671887 121.4267259  87.0492195  54.7220497 120.4741096  86.9734672
  53.8563089 121.5826698  87.5333494  52.6064247 120.0444319  84.8082574
  51.7932113 120.3438489  85.2147766  53.1023241 119.6500008  85.5257057
  58.2038459 120.5086143  93.6397468  58.5587847 120.7357617  94.4991934
  58.8510590 120.8404520  93.0174724  63.9336196 123.6304579  84.3446797
  63.7954094 123.8206175  83.4167986  63.5772415 124.3923962  84.8014848
  52.0978322 117.6162674  90.4243809  52.7377701 117.4751434  89.7266773
  51.2655852 117.3297188  90.0482411  63.9605575 125.6981106  89.3558069
  64.3942082 125.6056395  90.2041123  64.6737156 125.6738607  88.7178085
  49.1821389 121.0608187  82.6138554  48.2518977 120.9992642  82.8308517
  49.2778861 120.5384139  81.8175196  49.1006938 117.5862999  85.2016796
  49.3613756 118.5008333  85.0925957  49.9224111 117.1187442  85.3513409
  50.5731864 119.0000757  92.3715621  51.2454917 118.7918119  91.7228270
  49.7461650 118.8022843  91.9320853  64.8221125 125.7404807  91.8890954
  65.0157015 126.6450617  92.1350229  64.7221743 125.2812226  92.7229539
  56.4757436 115.6262698  94.3881281  55.8285351 116.3252647  94.2945758
  57.2458451 116.0598841  94.7557530  56.6521570 123.4643462  92.4478101
  57.5813630 123.6154622  92.2747069  56.2312600 123.5527483  91.5926748
  50.9759361 122.2743360  93.1318058  50.8379159 121.5423598  93.7329597
  51.8864284 122.1852260  92.8502246  59.9374309 124.2131764  77.8802536
  59.3203479 123.4878592  77.7835589  59.4690797 124.9741124  77.5369611
  53.6041662 121.9863319  92.6201737  54.3141280 121.3456511  92.5788356
  53.5610970 122.2376214  93.5427918  52.3170596 118.9728537  94.4397377
  51.7807953 118.5219275  95.0918973  51.7287304 119.1074446  93.6967841
  51.7272854 118.4317188  77.0023841  50.8502321 118.3105989  76.6386087
  52.2030608 117.6403266  76.7502729  48.0509717 118.1084544  91.5250371
  47.9667906 117.5010214  90.7900781  47.2292423 118.5993563  91.5259868
  58.2233431 116.5938108  86.8920566  58.7202130 115.8408070  86.5721637
  57.4520412 116.6302425  86.3263776  66.0763188 122.2978474  88.5338858
  66.0653064 123.1803189  88.1632791  65.2080567 121.9450024  88.3393395
  54.8068399 118.7355491  86.6192251  54.4366187 118.1826531  87.3073157
  55.3027492 118.1313624  86.0667251  62.6935763 121.1927115  85.0009024
  63.1596215 122.0255106  84.9269327  63.1443263 120.7272096  85.7054282
  60.6652425 113.5607701  89.0399925  59.7515505 113.7911928  89.2082132
  61.0945527 113.6446146  89.8913958  60.4358884 121.7497593  91.5399819
  59.7830334 121.9973501  90.8852272  60.8139264 120.9361732  91.2062297
  56.4846457 122.4917405  98.0265856  55.8087094 122.3911534  98.6968232
  57.3074091 122.3356618  98.4901854  50.2033733 116.1459482  92.8645357
  50.2675060 117.0074313  92.4522755  50.1400853 115.5333483  92.1317716
  49.6786006 118.2182614  96.5118391  50.3058044 117.8359692  97.1255916
  48.8213924 117.9996816  96.8774084  46.4551548 120.0259043  82.4436746
  46.7504989 119.1169722  82.3903800  45.5539584 120.0046783  82.1217749
  49.9845795 118.1015040  88.4264295  49.2632381 118.7151008  88.2871768
  50.7739051 118.6372805  88.3480941  52.7872109 115.4369466  94.7004947
  53.3106511 115.6831763  95.4631256  52.5684442 116.2689501  94.2808084
  48.1839390 117.7073141  82.5676071  47.8552096 116.8270520  82.3851177
  48.5378761 117.6520810  83.4552461  51.2981213 117.9946111  82.9351549
  51.6377286 118.5232032  82.2130157  51.7453334 118.3326517  83.7110116
  53.9924654 116.3783162  92.3854617  53.6521474 115.5790975  92.7875297
  53.2863660 116.6784872  91.8131450  54.6441126 113.4632474  90.8381940
  55.4667195 112.9892952  90.7160830  54.8879189 114.2422958  91.3380626
  53.2849360 116.4920732  81.1344842  54.0057723 116.8701985  80.6308559
  52.6614664 117.2109609  81.2379820  57.4280483 117.1965881  82.0703174
  57.6444097 118.0790519  81.7692002  56.9474550 116.8052095  81.3408816
  52.1679704 120.1551595  88.6473919  52.0224285 120.4691898  89.5398200
  51.6904908 120.7736495  88.0944817  54.0276087 117.1454143  88.6954808
  54.0137656 116.2495236  88.3587106  54.7448515 117.1524806  89.3293094
  55.8802218 117.5791483  90.7407936  55.6219996 118.5008554  90.7392266
  55.3487258 117.1821917  91.4308400  53.4312983 116.0268523  83.9642378
  53.5528894 115.0985169  84.1633266  53.1415026 116.0407209  83.0520694
  56.3004174 113.7123433  87.1009098  56.3225871 113.7762766  86.1461078
  56.7172233 112.8727942  87.2949604  66.6787798 123.4478693  85.1388321
  67.1218944 122.6986018  84.7407444  65.8014308 123.4388829  84.7562053
  52.9154063 117.5400520  98.1732311  52.9642218 118.4162643  97.7910081
  53.4576577 116.9977913  97.6003954  63.5206784 124.9334110  94.7666177
  63.5704788 124.7684117  95.7081699  63.4120707 124.0661369  94.3764057
  60.8110546 120.9165038  96.0825483  61.7120409 120.7771503  95.7909481
  60.8858520 121.0819493  97.0223661  55.1453351 118.2931893  94.9278670
  54.2756661 118.5865459  94.6561258  55.3812832 118.8772338  95.6485933
  66.2220663 124.9183931  87.5310768  67.0567554 125.3573735  87.6948329
  66.3579792 124.4422584  86.7119014  63.2712169 122.4763666  93.4788256
  63.7466290 122.6691312  92.6707108  62.3477734 122.5322852  93.2331640
  57.8492385 114.5111510  92.4444090  58.3674329 115.2472537  92.1190579
  57.4947518 114.8175503  93.2790849  49.4291323 119.3716191  80.5605496
  48.7360568 119.4460546  79.9045532  49.1843075 118.6076534  81.0827013
  58.1004979 110.9311792  87.9644987  58.3806733 110.2634981  88.5905413
  58.8855586 111.1240888  87.4519650  61.9713838 119.3529426  91.7116562
  62.9231261 119.4527524  91.7328786  61.8017288 118.5607695  92.2214646
  59.9928217 116.4385009  91.8975963  59.3978149 116.7190022  91.2022451
  59.7077914 116.9278910  92.6692704  64.4501915 122.5735546  90.8258861
  64.4178236 121.6351547  91.0118545  65.0602539 122.6519583  90.0924686
  56.2885246 121.4431599  76.8686065  57.2344351 121.3137807  76.9374484
  55.9099491 120.7046261  77.3455494  64.5996404 119.3646589  90.8717145
  64.0835453 118.5805046  90.6847073  65.4836352 119.0365306  91.0363664
  62.2607131 113.1087605  86.8312957  62.0631952 112.8002693  87.7156289
  62.8706836 113.8349244  86.9610887  70.2678465 123.6351553  89.9664898
  70.9981854 123.3736841  90.5272602  69.6585411 122.8980275  90.0066966
  68.3493762 121.7759415  90.5639349  67.6226926 121.6415380  89.9555841
  67.9341049 122.0836244  91.3696067  54.4728163 119.3681575  76.8040951
  53.5659619 119.0714688  76.8803664  54.7504144 119.0711393  75.9375237
  56.0890229 113.9118465  82.9585192  55.2790957 113.5665550  83.3340438
  56.7774646 113.6026009  83.5472804  58.0180777 112.9896512  84.5809489
  58.5711816 113.4091965  85.2399512  58.2550864 112.0632260  84.6232445
  54.0413877 118.9783585 100.3612253  53.9410604 119.9277942 100.2924344
  53.8235419 118.6501824  99.4888323  53.2426948 116.2268510  76.9452930
  54.1046112 116.5523409  77.2048747  53.4277292 115.4400006  76.4325996
  61.3959585 115.0997037  84.0888153  60.8158254 115.7581841  83.7066205
  61.1295517 114.2774381  83.6775570  59.8463151 114.5002095  86.2909473
  60.3462929 114.6118629  85.4823792  60.4898759 114.1963147  86.9310282
  53.9045147 122.4080724  99.1777314  53.4212228 123.2081084  99.3841203
  53.9906086 122.4188669  98.2244758  60.1784463 117.2597127  83.1444501
  59.2910318 117.5446778  82.9264696  60.5938452 117.0990891  82.2971778
  63.5298999 117.2843648  86.8598840  64.3059389 117.7740101  87.1323457
  62.8047133 117.7101702  87.3170710  65.9671557 117.9971267  87.9172781
  66.5616048 117.7567003  87.2066089  66.0398141 117.2778398  88.5446317
  60.1525486 122.7751663  83.3594791  60.0960688 123.2320215  82.5202424
  60.7053829 122.0142348  83.1817634  63.9630292 118.5641395  84.1844911
  63.7067226 118.1638031  85.0153118  63.3383160 119.2785189  84.0595050
  68.2742630 121.3037468  86.6916202  67.7142188 121.3730658  87.4647764
  67.6686133 121.1278453  85.9715698  60.8860266 123.9656444  80.6547321
  60.8309069 123.8000716  79.7135765  60.2606321 124.6732477  80.8109510
  45.6752781 119.2024509  94.4808743  46.3211644 118.6923463  94.9695968
  45.4669932 119.9393190  95.0552168  54.1956391 113.4664553  80.2332639
  54.1835061 114.4106393  80.3900910  55.0879813 113.2834699  79.9392100
  58.0108511 110.0607330  84.4878576  57.2440906 109.5065817  84.6335258
  58.4219215 110.1329199  85.3492727  50.0150272 116.3492126  98.5783757
  50.8781733 115.9928931  98.7887082  49.4415682 116.0106021  99.2659161
  69.4356896 127.2011825  91.4398267  69.0921166 128.0913466  91.3637377
  69.8035859 127.0113482  90.5767852  71.2344562 126.4605384  86.5416004
  71.5403439 125.6002747  86.2541919  71.9597167 127.0523004  86.3414998
  71.5046180 128.8899619  89.0399925  70.5909260 129.1203846  89.2082132
  71.9339281 128.9738063  89.8913958  68.9398734 126.2603710  87.9644987
  69.2200488 125.5926899  88.5905413  69.7249341 126.4532805  87.4519650
  73.1000885 128.4379523  86.8312957  72.9025706 128.1294611  87.7156289
  73.7100591 129.1641161  86.9610887  68.8574532 128.3188429  84.5809489
  69.4105571 128.7383883  85.2399512  69.0944618 127.3924178  84.6232445
  68.8502265 125.3899248  84.4878576  68.0834661 124.8357734  84.6335258
  69.2612970 125.4621117  85.3492727   4.8236123  23.0104599  76.1091465
   5.4614533  22.8911346  75.4054805   4.7056966  23.9585443  76.1679417
   1.6325829  22.9632027  76.0452989   1.2944341  22.8473092  75.1573524
   2.5015597  22.5623192  76.0253995   2.1145612  24.1166879  82.0039195
   2.1034253  23.7219677  81.1319698   2.2766252  23.3832951  82.5972966
   3.0712204  28.4838471  67.3464345   2.4200183  29.0692551  66.9598359
   3.8656566  29.0144666  67.4059383   4.3777391  20.7356053  73.1844673
   5.1640481  20.3175476  72.8335090   4.6416096  21.6402145  73.3526321
   4.5487469  26.1728903  67.8833329   3.9133302  26.2463529  68.5954234
   4.2184875  26.7622502  67.2052409   9.7785818  20.6731286  74.0877651
  10.5110990  20.1030503  74.3215481   9.0225174  20.2852886  74.5284157
   1.3961938  23.0958527  71.2840994   1.0320145  22.5689148  71.9953915
   2.2529054  22.7056996  71.1107479   7.3011239  14.3852860  78.5472260
   6.9694564  15.2548271  78.3233475   6.7056852  14.0689144  79.2266290
   1.0367425  18.1248427  66.2802342   1.2041828  18.9928663  66.6472813
   0.8464594  18.2875709  65.3563631   3.7942758  26.5865406  77.9468172
   3.4943481  27.4890445  77.8383980   3.4493818  26.3197589  78.7989325
   7.1939902  19.1047946  75.6265610   6.2856779  19.0363355  75.3324371
   7.1427498  19.5819891  76.4547435   1.2680768  20.5237592  83.5700507
   0.4914102  21.0831512  83.5603372   1.9071331  21.0094375  84.0915377
   9.0601549  17.3064385  77.4043484   8.4175929  17.5996918  76.7583278
   8.5556477  17.1917305  78.2096680   6.7141712  21.0527558  68.0929343
   7.6259568  21.2854944  67.9177041   6.2051359  21.6364602  67.5304422
   4.9982480  25.4752186  81.7290636   5.4065836  25.0334596  80.9845268
   4.2759741  24.9004813  81.9824828   1.3513550  20.4124792  79.1024192
   2.1974745  20.8364206  79.2458841   1.2912188  19.7558417  79.7962756
   5.3211295  26.0353376  75.4842924   4.6920157  26.1999090  74.7818992
   4.9336957  26.4494986  76.2553888   9.2000526  26.9707814  72.8387288
   8.5151565  27.3506715  72.2884321   9.2844376  27.5803141  73.5719236
   4.5012995  18.0729161  80.7605366   4.2573927  18.8271221  80.2239642
   4.7772926  18.4514508  81.5952613   6.4551458  24.6167773  79.4382632
   6.6668353  25.2599533  78.7617013   6.4081206  23.7830090  78.9704562
   4.0577687  17.2285594  76.3419204   3.1962166  17.5266847  76.6335941
   4.0840122  17.4455993  75.4100236   0.8739256  25.7727784  72.7493010
   1.3377602  26.0515487  71.9597632   0.6096054  24.8711229  72.5666100
   7.5697286  27.4939728  77.6104989   8.3914730  27.0919916  77.3287671
   7.5659689  27.3907963  78.5621105   1.3353889  27.0423772  79.7665700
   1.3998322  27.5044179  80.6023871   0.6264813  26.4121137  79.8948009
  15.6603279  23.8378477  73.9589961  14.9066987  23.2685875  73.8033965
  15.7950820  23.8041141  74.9060595   1.0501907  28.7091879  69.6344680
   0.9147582  29.5543415  70.0629528   1.5911720  28.9111157  68.8710614
   2.6770383  29.3315446  83.7645022   2.2334238  28.5451824  83.4465926
   3.3387597  29.5194596  83.0988913   4.7751621  29.6118246  81.7926423
   4.7570097  30.4327127  81.3006692   5.6971542  29.4872321  82.0176564
   1.2324676  27.1262375  82.6349932   1.7653012  26.3650663  82.4049240
   0.7038757  26.8336027  83.3774086   4.3644653  22.2231052  66.6716008
   3.8491277  22.9935657  66.9104396   4.0921962  21.5496188  67.2949070
   9.3378927  24.9763407  68.6069182   8.5608370  24.6374566  68.1624344
  10.0170408  24.9816030  67.9324147   4.1530957  20.0958144  68.4975790
   3.8481092  20.4104294  69.3485933   5.1061399  20.1739564  68.5403123
   2.5977388  26.2548368  70.1468744   2.0698750  25.5201127  69.8341981
   2.0964891  27.0323044  69.9008712   7.5770234  24.4497388  75.2635790
   6.9193909  25.1396650  75.3515919   8.3810634  24.8393820  75.6069776
   6.3875693  22.8041761  73.3139732   6.9007575  23.4371753  73.8161441
   7.0376917  22.2042956  72.9483092   3.6498067  32.7826085  66.0700403
   2.9759766  33.0857782  66.6785361   4.0363889  33.5855165  65.7205860
   2.8656524  20.2791216  75.5598072   1.9479085  20.5006163  75.4019760
   3.2816668  20.3537527  74.7009780   3.6491572  21.6782632  70.6900752
   4.3963391  22.1904029  70.3807874   3.9183161  21.3566685  71.5505146
   1.9218222  24.1741173  67.6727707   1.0129441  23.8900206  67.7700176
   1.9513306  24.5940251  66.8131014   7.1537489  27.7847762  71.4418874
   6.6999816  26.9438672  71.4984065   6.5231456  28.4209161  71.7793654
   6.0970409  18.7139748  72.6719542   5.3593166  18.2017135  73.0029784
   6.3497182  18.2740130  71.8602819   5.5970429  29.6224259  72.3768692
   5.8893403  30.1829316  71.6581058   6.1069049  29.9152820  73.1321852
   1.6194310  25.7149916  65.0115785   1.1813740  24.9985775  64.5521423
   2.3604751  25.9426031  64.4500877   0.5604054  30.4004610  73.4662146
   0.5180233  30.6265456  72.5370678   1.4766753  30.1667985  73.6147947
   4.0069688  20.8688678  80.3642775   4.3619075  21.0960151  81.2237241
   4.6541819  21.2007054  79.7420030   9.7367425  23.9907113  71.0692104
   9.5985323  24.1808709  70.1413293   9.3803643  24.7526496  71.5260155
   9.7636804  26.0583640  76.0803375  10.1973311  25.9658930  76.9286429
  10.4768385  26.0341141  75.4423391   3.4964699  29.6585735  77.6136476
   3.5501721  30.2276671  78.3814192   2.6279480  29.8287620  77.2490513
  10.6252354  26.1007341  78.6136261  10.8188244  27.0053152  78.8595536
  10.5252972  25.6414760  79.4474846   5.6867462  26.2514084  84.1877141
   5.5352969  26.0224636  83.2707225   5.6772142  27.2084685  84.2008486
   2.4552799  23.8245997  79.1723408   3.3844859  23.9757156  78.9992375
   2.0343829  23.9130017  78.3172054   1.8489283  32.9505758  68.2847482
   2.0241038  32.4793801  69.0993105   1.1622071  33.5771524  68.5128743
   2.8046346  27.2278264  74.3310783   2.4696178  27.1879034  75.2268433
   2.3050291  26.5622980  73.8581193   5.7405537  24.5734298  64.6047843
   5.1234708  23.8481126  64.5080896   5.2722026  25.3343658  64.2614917
   7.3959669  29.2833206  82.2653623   7.3372215  28.5992427  81.5984206
   7.7979187  30.0252196  81.8134249   7.3977076  27.2472790  80.4967603
   6.5103855  26.9098712  80.6194002   7.9675627  26.5155822  80.7336368
   0.9278230  31.9074243  77.4628846   0.8548401  32.7129214  77.9748151
   0.4855623  32.1066209  76.6376868   4.0264659  16.9540642  73.6165873
   4.5233359  16.2010605  73.2966943   3.2551641  16.9904959  73.0509082
  11.8794417  22.6581008  75.2584165  11.8684293  23.5405723  74.8878098
  11.0111796  22.3052559  75.0638702   3.3876913  31.8061077  79.6187005
   4.1004885  32.4408542  79.5462906   2.8966942  31.9024943  78.8027007
   5.1094440  25.7112329  71.1904296   4.1750719  25.8313792  71.0209001
   5.2871109  24.8084796  70.9264306   8.4966991  21.5529649  71.7254331
   8.9627444  22.3857640  71.6514633   8.9474492  21.0874630  72.4299589
   6.5643223  27.8973470  68.7240483   6.8403067  27.7830065  69.6334357
   5.6947721  27.4990955  68.6852656   6.2390113  22.1100128  78.2645126
   5.5861563  22.3576035  77.6097579   6.6170493  21.2964266  77.9307603
   3.1997287  32.1459821  72.3673296   3.3819681  31.3281477  72.8301049
   4.0230273  32.3627513  71.9298186   3.5339452  31.0728006  69.6288345
   4.0627219  30.5620461  69.0158507   3.7967672  30.7570536  70.4933878
   2.2877686  22.8519939  84.7511163   1.6118323  22.7514068  85.4213538
   3.1105320  22.6959152  85.2147160   1.0300469  34.1586866  78.9868779
   1.5818777  34.3218488  79.7517864   1.3706662  34.7491304  78.3148804
   5.8811343  28.9848124  84.8417433   6.4251247  29.5978082  84.3472388
   5.2998188  29.5427702  85.3584446   4.1668856  32.1068842  75.9732461
   4.0419995  31.3058582  75.4643407   4.8247947  32.6015035  75.4846431
   6.2303764  29.9077862  77.6012011   5.2834100  29.7883213  77.5290338
   6.5786537  29.0200360  77.6838273   3.2350198  29.7030578  73.8016364
   3.0875160  28.7747285  73.9823934   4.0603691  29.7250669  73.3173439
   6.8384319  30.5259137  74.8881236   7.7630867  30.3201998  74.7505687
   6.6699623  30.2775538  75.7970578   3.2311712  17.5568416  68.7948481
   3.4475326  18.4393054  68.4937309   2.7505779  17.1654629  68.0654123
   6.6279636  31.0444804  70.2443328   6.8016513  30.4791227  69.4917180
   7.1208527  31.8445699  70.0622818  12.4819027  23.8081227  71.8633627
  12.9250173  23.0588552  71.4652751  11.6045537  23.7991363  71.4807359
   7.6154808  30.3611569  67.3440226   8.3105713  30.9818261  67.5627541
   7.9577958  29.5106920  67.6192604   9.5146231  27.8111274  68.8727557
  10.0397555  28.1498547  68.1476877   9.4268584  26.8758289  68.6890691
   1.1766280  31.7245348  81.0017433   1.4853406  31.4794495  81.8740133
   1.9741762  31.9291986  80.5136304   1.1986892  33.8783257  73.2322810
   0.7591882  33.3859636  73.9255667   1.9495009  33.3356225  72.9914885
   9.2040137  28.4444178  84.1778755   8.4135681  28.4268317  83.6383254
   8.9673492  28.9832471  84.9327791   9.3238012  25.2936644  81.4911483
   9.3736017  25.1286652  82.4327006   9.2151936  24.4263903  81.1009364
   6.6141775  21.2767572  82.8070790   7.5151638  21.1374037  82.5154788
   6.6889749  21.4422027  83.7468967  10.8256209  27.7133586  81.7353505
  10.5341018  28.0763566  82.5716966  10.2128340  27.0000594  81.5566837
  12.0251892  25.2786465  74.2556075  12.8598783  25.7176270  74.4193635
  12.1611020  24.8025119  73.4364321   9.0743397  22.8366200  80.2033563
   9.5497519  23.0293847  79.3952414   8.1508963  22.8925386  79.9576946
   1.7069677  30.4673320  66.2515320   1.1343644  31.0863507  65.7985791
   2.2802470  31.0172682  66.7855242   7.7745066  19.7131960  78.4361868
   8.7262489  19.8130058  78.4574092   7.6048517  18.9210229  78.9459953
   5.7959446  16.7987544  78.6221269   5.2009378  17.0792556  77.9267758
   5.5109143  17.2881445  79.3938010   4.9266936  30.7510470  67.3823902
   5.8597610  30.6856032  67.5856777   4.8390149  31.5866737  66.9238435
   7.5554953  30.0676341  64.3427849   7.4768585  29.7336204  65.2363607
   8.3764620  30.5598109  64.3419322  10.2533144  22.9338080  77.5504168
  10.2209464  21.9954081  77.7363852  10.8633768  23.0122117  76.8169993
   2.0916475  21.8034133  63.5931372   3.0375580  21.6740341  63.6619790
   1.7130720  21.0648795  64.0700800  10.4027633  19.7249123  77.5962451
   9.8866681  18.9407580  77.4092380  11.2867581  19.3967840  77.7608971
   8.0638360  13.4690139  73.5558264   7.8663181  13.1605227  74.4401596
   8.6738065  14.1951778  73.6856194  16.0709694  23.9954087  76.6910205
  16.8013083  23.7339375  77.2517908  15.4616640  23.2582809  76.7312273
  14.1524991  22.1361949  77.2884656  13.4258155  22.0017914  76.6801148
  13.7372278  22.4438778  78.0941374   1.9755168  25.8551879  85.0532029
   2.8958177  26.0330478  85.2472076   1.9404751  24.9107925  84.9011728
   7.1990813  15.4599571  70.8133460   6.6189482  16.1184375  70.4311512
   6.9326746  14.6376916  70.4020877   5.6494380  14.8604629  73.0154780
   6.1494158  14.9721163  72.2069099   6.2929988  14.5565682  73.6555588
   5.9815691  17.6199661  69.8689808   5.0941546  17.9049312  69.6510003
   6.3969680  17.4593425  69.0217085   9.3330228  17.6446182  73.5844147
  10.1090618  18.1342635  73.8568764   8.6078362  18.0704237  74.0416017
  11.7702786  18.3573802  74.6418088  12.3647277  18.1169538  73.9311396
  11.8429370  17.6380932  75.2691624   5.1258905  27.3844336  63.9637828
   5.8294755  27.5894339  64.5795483   4.4021554  27.9521098  64.2286911
   5.9556715  23.1354197  70.0840098   5.8991917  23.5922749  69.2447730
   6.5085058  22.3744882  69.9062941   9.7661521  18.9243929  70.9090217
   9.5098455  18.5240565  71.7398425   9.1414389  19.6387723  70.7840357
  14.0773859  21.6640003  73.4161509  13.5173417  21.7333192  74.1893071
  13.4717362  21.4880987  72.6961005   7.0345602  27.8226865  66.0136288
   7.8691206  27.3908064  65.8313763   6.8729945  27.6508879  66.9413182
   6.6891494  24.3258979  67.3792627   6.6340298  24.1603250  66.4381071
   6.0637550  25.0335012  67.5354817   4.0037402  26.6307891  86.7046190
   4.8728561  26.8048543  86.3432825   3.5244153  27.4502307  86.5821919
  15.6629877  38.3396516  76.1091465  16.3008287  38.2203264  75.4054805
  15.5450720  39.2877360  76.1679417  12.4719584  38.2923945  76.0452989
  12.1338095  38.1765009  75.1573524  13.3409352  37.8915110  76.0253995
   8.3306399  40.1459421  72.0349880   7.7671264  40.0549358  71.2666168
   8.2158794  39.3259325  72.5152373  12.9539367  39.4458796  82.0039195
  12.9428007  39.0511595  81.1319698  13.1160006  38.7124869  82.5972966
   5.8770831  41.6410613  74.8734101   6.6692123  41.3001437  74.4580400
   6.1167481  41.7505588  75.7936254  13.9105958  43.8130389  67.3464345
  13.2593938  44.3984469  66.9598359  14.7050321  44.3436584  67.4059383
   7.8361585  40.9019526  67.7451479   8.6092461  40.3548513  67.6064355
   8.1886984  41.7663775  67.9565941   9.6746628  42.2295908  80.9518379
   9.3836494  43.1341539  80.8365045  10.3103612  42.2712436  81.6662448
  10.6002835  39.6072757  77.5419738  11.1966407  39.3828779  76.8276701
  10.6577806  38.8657502  78.1445186  10.1727863  37.0612192  65.3769929
  10.4253384  36.5393713  64.6153392   9.2352422  36.8978337  65.4796613
  15.2171146  36.0647970  73.1844673  16.0034235  35.6467393  72.8335090
  15.4809850  36.9694063  73.3526321  15.3881223  41.5020821  67.8833329
  14.7527056  41.5755447  68.5954234  15.0578630  42.0914419  67.2052409
  20.6179573  36.0023204  74.0877651  21.3504745  35.4322420  74.3215481
  19.8618929  35.6144804  74.5284157   9.8924152  38.9640298  67.5794304
   9.7760410  38.2885201  68.2475389  10.0026412  38.4772672  66.7626457
  12.2355693  38.4250445  71.2840994  11.8713900  37.8981066  71.9953915
  13.0922809  38.0348914  71.1107479  18.1404993  29.7144778  78.5472260
  17.8088318  30.5840189  78.3233475  17.5450607  29.3981062  79.2266290
  11.8761180  33.4540345  66.2802342  12.0435582  34.3220581  66.6472813
  11.6858349  33.6167626  65.3563631  14.6336513  41.9157324  77.9468172
  14.3337236  42.8182362  77.8383980  14.2887572  41.6489507  78.7989325
   8.0848994  38.3671120  73.9804877   7.1599491  38.2347335  74.1882569
   8.3333408  39.1465340  74.4774819  18.0333657  34.4339864  75.6265610
  17.1250534  34.3655272  75.3324371  17.9821252  34.9111809  76.4547435
  11.8550401  35.9098002  67.2649009  11.7350026  36.3555053  68.1034489
  11.1602989  36.2583320  66.7062547   5.4457805  38.0104394  74.8148666
   5.5750187  38.2638873  75.7288078   4.7655257  38.6032102  74.4953321
   9.6157293  48.6801644  70.9139140   9.5381322  49.6309469  70.9927621
   9.0118936  48.3347516  71.5714066  12.1074522  35.8529509  83.5700507
  11.3307856  36.4123430  83.5603372  12.7465085  36.3386292  84.0915377
  19.8995303  32.6356302  77.4043484  19.2569683  32.9288835  76.7583278
  19.3950232  32.5209223  78.2096680  17.5535467  36.3819475  68.0929343
  18.4653323  36.6146862  67.9177041  17.0445114  36.9656520  67.5304422
  10.3620895  38.6614963  83.1318474  11.1035579  39.2000007  82.8553298
   9.6557880  39.2881252  83.2890026  15.8376234  40.8044103  81.7290636
  16.2459590  40.3626514  80.9845268  15.1153496  40.2296731  81.9824828
  12.1907304  35.7416710  79.1024192  13.0368500  36.1656124  79.2458841
  12.1305942  35.0850334  79.7962756  16.1605049  41.3645294  75.4842924
  15.5313911  41.5291008  74.7818992  15.7730711  41.7786903  76.2553888
  20.0394281  42.2999732  72.8387288  19.3545319  42.6798633  72.2884321
  20.1238130  42.9095058  73.5719236  15.3406750  33.4021078  80.7605366
  15.0967682  34.1563139  80.2239642  15.6166680  33.7806426  81.5952613
  17.2945212  39.9459691  79.4382632  17.5062108  40.5891451  78.7617013
  17.2474961  39.1122007  78.9704562  14.8971441  32.5577511  76.3419204
  14.0355920  32.8558765  76.6335941  14.9233876  32.7747910  75.4100236
  11.7133011  41.1019702  72.7493010  12.1771356  41.3807405  71.9597632
  11.4489809  40.2003147  72.5666100   8.6057092  40.6491183  75.6872773
   9.1758449  41.0778452  75.0490257   9.1965204  40.3673768  76.3856958
  10.6501897  37.2242854  69.5582575  11.3525940  37.6763898  70.0256501
  10.3182525  36.5826673  70.1862468   9.0982258  35.8154611  83.9333784
   8.4680919  36.4970892  84.1669181   8.9918346  35.7037693  82.9886922
   4.3927231  35.4826407  74.8599708   3.6026285  35.7383935  74.3839819
   4.8838478  36.2974745  74.9651749  18.4091040  42.8231646  77.6104989
  19.2308484  42.4211833  77.3287671  18.4053443  42.7199880  78.5621105
   6.3441976  35.8470986  71.8183185   5.5473140  35.9589680  72.3366681
   6.1167568  36.1857638  70.9524075  12.1747644  42.3715689  79.7665700
  12.2392076  42.8336097  80.6023871  11.4658568  41.7413054  79.8948009
   2.6764934  35.7356897  77.2914699   2.9272972  36.6203907  77.5572275
   3.2124482  35.5561499  76.5189791  26.4997033  39.1670395  73.9589961
  25.7460742  38.5977793  73.8033965  26.6344575  39.1333059  74.9060595
  11.8895662  44.0383797  69.6344680  11.7541336  44.8835333  70.0629528
  12.4305474  44.2403075  68.8710614   8.3763001  30.1175377  86.2959035
   7.9829947  29.5641575  86.9706679   9.1929141  30.4285955  86.6865553
   5.3425059  41.5559235  70.2072605   5.8549579  42.3502485  70.3578170
   5.9947772  40.8585525  70.1406206   7.1519944  44.6724991  72.2895358
   7.3286572  45.5942956  72.1016342   7.9476777  44.3583410  72.7189738
  11.2930962  31.5333256  83.8879292  12.0340676  32.1340409  83.8083754
  11.5248885  30.7910894  83.3297334   6.4372300  36.7189623  82.1657521
   6.3225815  35.8174880  82.4664620   5.5816818  36.9653320  81.8142338
  13.5164138  44.6607363  83.7645022  13.0727992  43.8743742  83.4465926
  14.1781351  44.8486514  83.0988913   8.2751259  46.1903165  78.2905700
   8.8258684  46.0620228  77.5182694   7.4362735  46.4898054  77.9400593
  15.6145376  44.9410163  81.7926423  15.5963851  45.7619044  81.3006692
  16.5365296  44.8164239  82.0176564  12.0718430  42.4554293  82.6349932
  12.6046767  41.6942581  82.4049240  11.5432511  42.1627945  83.3774086
  15.2388125  27.5614359  78.1643573  14.8952395  28.4516000  78.0882684
  15.6067088  27.3716016  77.3013158   3.3073976  39.8847889  70.9832175
   4.1449198  40.2944898  70.7665883   3.4852243  38.9447331  70.9532369
  15.2038408  37.5522970  66.6716008  14.6885031  38.3227575  66.9104396
  14.9315716  36.8788106  67.2949070  12.7885519  32.3972671  71.7301247
  11.9327115  32.0079521  71.5506886  13.2012471  32.4764631  70.8701032
  14.3184665  29.9319014  76.1292807  13.8149461  29.8949149  75.3160612
  14.6115272  30.8411757  76.1889463  10.5627551  30.0157744  75.1358988
  11.4280548  29.8200552  74.7764878  10.6305060  29.7868095  76.0628345
  20.1772682  40.3055325  68.6069182  19.4002125  39.9666484  68.1624344
  20.8564163  40.3107948  67.9324147  14.9924711  35.4250062  68.4975790
  14.6874847  35.7396211  69.3485933  15.9455153  35.5031482  68.5403123
  13.4371143  41.5840285  70.1468744  12.9092504  40.8493045  69.8341981
  12.9358646  42.3614962  69.9008712  18.4163989  39.7789306  75.2635790
  17.7587663  40.4688567  75.3515919  19.2204388  40.1685738  75.6069776
   8.1689870  32.2459952  72.5075355   8.7433622  32.0235133  71.7748548
   8.7560853  32.3148646  73.2603956  17.2269448  38.1333678  73.3139732
  17.7401329  38.7663670  73.8161441  17.8770672  37.5334874  72.9483092
   8.4959458  34.2764413  66.5271240   7.6596770  34.6139099  66.8480515
   8.3564227  34.1413392  65.5898377  10.4712538  29.1201201  71.2350425
   9.8176951  28.8050218  70.6107039  10.4293012  28.4976941  71.9610247
  11.5823743  39.4020496  63.1503717  10.6750805  39.1709749  63.3494866
  12.0794775  38.6058115  63.3377698  14.4891822  48.1118003  66.0700403
  13.8153521  48.4149700  66.6785361  14.8757644  48.9147083  65.7205860
  13.7050279  35.6083134  75.5598072  12.7872840  35.8298081  75.4019760
  14.1210422  35.6829445  74.7009780  14.4885326  37.0074550  70.6900752
  15.2357145  37.5195947  70.3807874  14.7576916  36.6858602  71.5505146
  12.7611976  39.5033090  67.6727707  11.8523196  39.2192123  67.7700176
  12.7907060  39.9232169  66.8131014  17.9931244  43.1139680  71.4418874
  17.5393571  42.2730590  71.4984065  17.3625211  43.7501078  71.7793654
  16.9364163  34.0431666  72.6719542  16.1986920  33.5309052  73.0029784
  17.1890937  33.6032048  71.8602819  16.4364183  44.9516177  72.3768692
  16.7287157  45.5121234  71.6581058  16.9462804  45.2444738  73.1321852
  17.0375791  26.8207918  73.2661311  17.3434668  25.9605281  72.9787226
  17.7628396  27.4125538  73.0660305   3.3300147  37.2238605  71.6542909
   3.1324547  36.6307965  70.9293976   2.7746811  36.9190815  72.3718848
  11.3096871  37.1161711  73.7737502  11.3645480  36.1635547  73.6979979
  10.4988073  37.2721150  74.2578801  12.4588064  41.0441834  65.0115785
  12.0207494  40.3277693  64.5521423  13.1998505  41.2717949  64.4500877
   9.2489230  35.7338771  71.5327881   8.4357096  36.0332941  71.9393073
   9.7448225  35.3394460  72.2502363  11.3997808  45.7296528  73.4662146
  11.3573987  45.9557374  72.5370678  12.3160507  45.4959902  73.6147947
  14.8463442  36.1980595  80.3642775  15.2012830  36.4252068  81.2237241
  15.4935573  36.5298972  79.7420030  20.5761179  39.3199031  71.0692104
  20.4379078  39.5100627  70.1413293  20.2197398  40.0818414  71.5260155
   8.7403305  33.3057126  77.1489116   9.3802685  33.1645885  76.4512079
   7.9080836  33.0191640  76.7727718  20.6030559  41.3875558  76.0803375
  21.0367065  41.2950847  76.9286429  21.3162139  41.3633059  75.4423391
   9.5163609  42.6059557  73.2624108  10.3104208  42.1109877  73.0606683
   8.8055301  42.0777420  72.8991814  14.3358454  44.9877652  77.6136476
  14.3895476  45.5568589  78.3814192  13.4673235  45.1579537  77.2490513
   5.8246373  36.7502638  69.3383861   4.8943961  36.6887094  69.5553823
   5.9203845  36.2278591  68.5420502   5.7431922  33.2757451  71.9262103
   6.0038739  34.1902785  71.8171263   6.5649094  32.8081894  72.0758716
   7.2156847  34.6895208  79.0960927   7.8879900  34.4812571  78.4473576
   6.3886633  34.4917294  78.6566160  21.4646108  41.4299259  78.6136261
  21.6581998  42.3345069  78.8595536  21.3646726  40.9706678  79.4474846
  13.1182419  31.3157149  81.1126588  12.4710334  32.0147099  81.0191065
  13.8883434  31.7493293  81.4802836  16.5261217  41.5806002  84.1877141
  16.3746723  41.3516553  83.2707225  16.5165896  42.5376603  84.2008486
  13.2946553  39.1537914  79.1723408  14.2238613  39.3049074  78.9992375
  12.8737583  39.2421935  78.3172054  12.0934885  43.1788579  76.9421945
  11.9545971  42.8107363  77.8147884  11.3049481  43.6936218  76.7705903
  12.6883037  48.2797675  68.2847482  12.8634793  47.8085718  69.0993105
  12.0015825  48.9063441  68.5128743  13.6440100  42.5570181  74.3310783
  13.3089933  42.5170951  75.2268433  13.1444046  41.8914897  73.8581193
   7.6184344  37.9637811  79.8563364   7.4804142  37.2318050  80.4574903
   8.5289268  37.8746712  79.5747552  16.5799292  39.9026216  64.6047843
  15.9628463  39.1773044  64.5080896  16.1115780  40.6635576  64.2614917
  10.2466645  37.6757771  79.3447044  10.9566263  37.0350963  79.3033662
  10.2035953  37.9270666  80.2673225  18.2353424  44.6125124  82.2653623
  18.1765970  43.9284344  81.5984206  18.6372942  45.3544114  81.8134249
   8.9595579  34.6622989  81.1642684   8.4232936  34.2113727  81.8164280
   8.3712287  34.7968897  80.4213148   7.2544122  51.4287038  75.0587342
   7.4940721  52.0605562  75.7366361   6.4113319  51.0775078  75.3452701
   8.3697838  34.1211640  63.7269147   7.4927304  34.0000441  63.3631394
   8.8455591  33.3297718  63.4748036  18.2370831  42.5764708  80.4967603
  17.3497610  42.2390630  80.6194002  18.8069382  41.8447739  80.7336368
   4.6934700  33.7978996  78.2495678   4.6092889  33.1904666  77.5146088
   3.8717406  34.2888015  78.2505174  11.7671984  47.2366160  77.4628846
  11.6942156  48.0421132  77.9748151  11.3249377  47.4358126  76.6376868
  11.5561764  46.4737930  70.9731668  10.7729286  47.0159611  71.0669892
  12.2554509  46.9911910  71.3725909  14.8658414  32.2832560  73.6165873
  15.3627113  31.5302522  73.2966943  14.0945395  32.3196877  73.0509082
  22.7188171  37.9872925  75.2584165  22.7078048  38.8697641  74.8878098
  21.8505551  37.6344476  75.0638702  14.2270668  47.1352994  79.6187005
  14.9398640  47.7700459  79.5462906  13.7360696  47.2316860  78.8027007
  15.9488195  41.0404247  71.1904296  15.0144473  41.1605710  71.0209001
  16.1264863  40.1376714  70.9264306  11.4493383  34.4249943  73.3437558
  11.0791170  33.8720983  74.0318463  11.9452475  33.8208076  72.7912558
  19.3360746  36.8821566  71.7254331  19.8021198  37.7149558  71.6514633
  19.7868246  36.4166548  72.4299589   9.2782581  44.8847438  80.4392576
   9.9792041  45.5183921  80.5921970   8.8077696  45.2262169  79.6788215
  17.4036977  43.2265388  68.7240483  17.6796821  43.1121982  69.6334357
  16.5341476  42.8282873  68.6852656  17.3077409  29.2502153  75.7645232
  16.3940489  29.4806380  75.9327439  17.7370510  29.3340597  76.6159264
  17.0783867  37.4392045  78.2645126  16.4255317  37.6867953  77.6097579
  17.4564247  36.6256184  77.9307603  14.0391041  47.4751739  72.3673296
  14.2213436  46.6573394  72.8301049  14.8624027  47.6919431  71.9298186
  14.3733207  46.4019924  69.6288345  14.9020973  45.8912378  69.0158507
  14.6361426  46.0862454  70.4933878  13.1271440  38.1811856  84.7511163
  12.4512077  38.0805986  85.4213538  13.9499074  38.0251070  85.2147160
   4.8750299  44.4183793  77.3723678   5.4603736  43.6727481  77.5051583
   4.6775138  44.7287750  78.2560342   7.7288955  47.4535040  72.3886121
   7.0599330  47.9381168  71.9050161   7.5901824  47.7004261  73.3029499
  11.8694223  49.4878784  78.9868779  12.4212531  49.6510405  79.7517864
  12.2100417  50.0783222  78.3148804   6.8458716  31.8353934  79.5890664
   6.9100043  32.6968765  79.1768061   6.7825837  31.2227935  78.8563022
   6.3210989  33.9077066  83.2363698   6.9483028  33.5254144  83.8501222
   5.4638908  33.6891268  83.6019391  16.7205097  44.3140041  84.8417433
  17.2645001  44.9270000  84.3472388  16.1391942  44.8719620  85.3584446
   3.0976532  35.7153495  69.1682053   3.3929973  34.8064174  69.1149107
   2.1964567  35.6941235  68.8463055  15.0062610  47.4360759  75.9732461
  14.8813750  46.6350499  75.4643407  15.6641702  47.9306953  75.4846431
   6.6270779  33.7909492  75.1509601   5.9057364  34.4045460  75.0117075
   7.4164034  34.3267257  75.0726247  17.0697519  45.2369779  77.6012011
  16.1227854  45.1175131  77.5290338  17.4180292  44.3492278  77.6838273
   9.4297092  31.1263918  81.4250253   9.9531494  31.3726215  82.1876563
   9.2109425  31.9583953  81.0053391   4.8264373  33.3967593  69.2921378
   4.4977079  32.5164972  69.1096484   5.1803744  33.3415262  70.1797767
  14.0743952  45.0322496  73.8016364  13.9268915  44.1039203  73.9823934
  14.8997446  45.0542586  73.3173439   7.9406196  33.6840563  69.6596856
   8.2802269  34.2126484  68.9375464   8.3878317  34.0220969  70.4355422
  17.6778074  45.8551054  74.8881236  18.6024621  45.6493916  74.7505687
  17.5093377  45.6067456  75.7970578  10.6349637  32.0677614  79.1099924
  10.2946458  31.2685427  79.5120604   9.9288643  32.3679324  78.5376757
  11.2866109  29.1526926  77.5627247  12.1092178  28.6787404  77.4406137
  11.5304173  29.9317410  78.0625933   9.9274344  32.1815184  67.8590148
  10.6482706  32.5596437  67.3553865   9.3039648  32.9004061  67.9625126
  14.0705466  32.8860333  68.7948481  14.2869081  33.7684971  68.4937309
  13.5899534  32.4946547  68.0654123   8.8104688  35.8446047  75.3719225
   8.6649269  36.1586350  76.2643507   8.3329891  36.4630947  74.8190124
  10.6701071  32.8348595  75.4200115  10.6562639  31.9389688  75.0832413
  11.3873499  32.8419258  76.0538401  12.5227201  33.2685935  77.4653242
  12.2644979  34.1903005  77.4637573  11.9912242  32.8716369  78.1553706
  17.4673390  46.3736722  70.2443328  17.6410268  45.8083144  69.4917180
  17.9602281  47.1737617  70.0622818   3.2850350  38.3851391  78.3106887
   2.7403818  39.1611199  78.4427161   4.1629700  38.7322195  78.1526008
  10.0737967  31.7162975  70.6887685  10.1953878  30.7879621  70.8878573
   9.7840009  31.7301661  69.7766000  12.9429157  29.4017885  73.8254405
  12.9650854  29.4657218  72.8706384  13.3597216  28.5622394  74.0194911
  23.3212781  39.1373145  71.8633627  23.7643927  38.3880470  71.4652751
  22.4439292  39.1283281  71.4807359  18.4548563  45.6903486  67.3440226
  19.1499467  46.3110179  67.5627541  18.7971713  44.8398837  67.6192604
   4.0716372  37.5121287  81.2037043   3.3298108  37.6603923  81.7901674
   3.7509116  37.7729553  80.3403793  20.3539986  43.1403192  68.8727557
  20.8791310  43.4790465  68.1476877  20.2662338  42.2050207  68.6890691
  12.0160034  47.0537265  81.0017433  12.3247161  46.8086412  81.8740133
  12.8135516  47.2583904  80.5136304  12.0380646  49.2075175  73.2322810
  11.5985637  48.7151554  73.9255667  12.7888763  48.6648143  72.9914885
   4.5172985  45.3986716  73.2347438   5.3431005  45.0990488  72.8546082
   4.1667037  44.6294338  73.6837227   9.4854519  44.7513184  75.3045112
   8.8634528  44.0883889  75.0047340  10.1559386  44.7774316  74.6218759
   2.7181591  43.3173042  74.1936372   1.8813499  42.8895217  74.0120373
   2.6905236  43.5105486  75.1307163   9.5579046  33.2294972  84.8977618
   9.6067202  34.1057095  84.5155387  10.1001560  32.6872365  84.3249261
  20.0433892  43.7736095  84.1778755  19.2529436  43.7560234  83.6383254
  19.8067246  44.3124389  84.9327791  20.1631767  40.6228562  81.4911483
  20.2129772  40.4578569  82.4327006  20.0545690  39.7555821  81.1009364
   9.0468026  43.3017108  68.7803572   9.1956146  43.9852572  68.1270245
   9.8534469  43.2822198  69.2953028  17.4535529  36.6059490  82.8070790
  18.3545392  36.4665955  82.5154788  17.5283504  36.7713945  83.7468967
  11.7878335  33.9826345  81.6523976  10.9181644  34.2759911  81.3806565
  12.0237815  34.5666790  82.3731240  21.6649964  43.0425503  81.7353505
  21.3734772  43.4055484  82.5716966  21.0522095  42.3292512  81.5566837
  22.8645646  40.6078383  74.2556075  23.6992537  41.0468187  74.4193635
  23.0004775  40.1317036  73.4364321  19.9137152  38.1658118  80.2033563
  20.3891274  38.3585764  79.3952414  18.9902717  38.2217304  79.9576946
   6.8020659  39.3282285  69.7864641   6.5566700  38.4244615  69.9844851
   6.9716573  39.3299436  68.8444119  14.4917368  30.2005962  79.1689397
  15.0099312  30.9366988  78.8435885  14.1372501  30.5069955  80.0036156
   6.0716306  35.0610643  67.2850803   5.3785551  35.1354998  66.6290839
   5.8268058  34.2970986  67.8072319  14.7429963  26.6206244  74.6890293
  15.0231716  25.9529433  75.3150720  15.5280570  26.8135340  74.1764957
  12.5463431  45.7965238  66.2515320  11.9737398  46.4155425  65.7985791
  13.1196225  46.3464600  66.7855242  18.6138821  35.0423878  78.4361868
  19.5656244  35.1421976  78.4574092  18.4442271  34.2502147  78.9459953
  16.6353200  32.1279461  78.6221269  16.0403133  32.4084474  77.9267758
  16.3502897  32.6173362  79.3938010  15.7660691  46.0802388  67.3823902
  16.6991364  46.0147950  67.5856777  15.6783904  46.9158655  66.9238435
  18.3948708  45.3968258  64.3427849  18.3162339  45.0628122  65.2363607
  19.2158374  45.8890026  64.3419322  21.0926899  38.2629998  77.5504168
  21.0603219  37.3245998  77.7363852  21.7027522  38.3414034  76.8169993
  12.9310230  37.1326051  63.5931372  13.8769334  37.0032259  63.6619790
  12.5524475  36.3940713  64.0700800  21.2421387  35.0541041  77.5962451
  20.7260436  34.2699498  77.4092380  22.1261336  34.7259758  77.7608971
  18.9032114  28.7982057  73.5558264  18.7056935  28.4897145  74.4401596
  19.5131820  29.5243696  73.6856194  26.9103449  39.3246005  76.6910205
  27.6406837  39.0631293  77.2517908  26.3010394  38.5874727  76.7312273
  24.9918746  37.4653867  77.2884656  24.2651909  37.3309832  76.6801148
  24.5766033  37.7730696  78.0941374  12.8148922  41.1843797  85.0532029
  13.7351932  41.3622396  85.2472076  12.7798505  40.2399842  84.9011728
  11.1153147  35.0576027  63.5286257  10.2084602  34.7609140  63.6048971
  11.3929128  34.7605845  62.6620544   2.0331087  36.3782391  73.9785304
   1.7133871  35.5247699  73.6859678   1.4864515  36.5930969  74.7343271
   5.8110995  39.0944832  77.6954810   6.0297004  40.0261939  77.7142844
   6.2236768  38.7352806  78.4809614  12.7315212  29.6012917  69.6830499
  11.9215941  29.2560002  70.0585745  13.4199629  29.2920461  70.2718110
  14.6605761  28.6790964  71.3054795  15.2136799  29.0986417  71.9644818
  14.8975847  27.7526712  71.3477751  10.6838860  34.6678037  87.0857559
  10.5835587  35.6172394  87.0169650  10.4660402  34.3396276  86.2133629
   9.8851931  31.9162962  63.6698237  10.7471095  32.2417861  63.9294054
  10.0702276  31.1294458  63.1571302   1.9019347  39.9985302  75.9478425
   1.2082819  39.5839255  75.4348380   2.6492338  40.0405839  75.3511844
  18.0384568  30.7891489  70.8133460  17.4583237  31.4476293  70.4311512
  17.7720501  29.9668833  70.4020877  16.4888134  30.1896546  73.0154780
  16.9887913  30.3013081  72.2069099  17.1323742  29.8857599  73.6555588
  10.5470130  38.0975176  85.9022621  10.0637212  38.8975536  86.1086510
  10.6331069  38.1083121  84.9490065   3.8156090  39.9303556  73.8244440
   3.7926778  40.0291243  72.8726323   4.1256726  40.7768707  74.1461606
   6.4743468  41.9879711  77.9391055   7.4286721  41.9563653  77.8720986
   6.2755991  41.5270335  78.7541281   7.0642850  40.5580827  80.5061852
   7.8835739  41.0524906  80.5296690   7.3379657  39.6412795  80.4779420
  16.8209446  32.9491579  69.8689808  15.9335301  33.2341230  69.6510003
  17.2363435  32.7885343  69.0217085  20.1723982  32.9738100  73.5844147
  20.9484372  33.4634553  73.8568764  19.4472116  33.3996154  74.0416017
  22.6096541  33.6865719  74.6418088  23.2041031  33.4461455  73.9311396
  22.6823124  32.9672850  75.2691624   4.8293696  47.5299330  74.9561252
   4.6948164  46.7699731  74.3899251   4.4125759  48.2540230  74.4890041
  15.9652659  42.7136254  63.9637828  16.6688509  42.9186256  64.5795483
  15.2415308  43.2813016  64.2286911  16.7950470  38.4646115  70.0840098
  16.7385671  38.9214667  69.2447730  17.3478812  37.7036800  69.9062941
  20.6055276  34.2535847  70.9090217  20.3492210  33.8532483  71.7398425
  19.9808144  34.9679641  70.7840357  24.9167613  36.9931920  73.4161509
  24.3567171  37.0625110  74.1893071  24.3111117  36.8172905  72.6961005
   7.9862822  48.4268647  75.1679695   7.8695206  49.3714080  75.0658385
   7.1655268  48.1242209  75.5565494  17.8739357  43.1518783  66.0136288
  18.7084961  42.7199982  65.8313763  17.7123700  42.9800797  66.9413182
  17.5285249  39.6550896  67.3792627  17.4734053  39.4895168  66.4381071
  16.9031304  40.3626929  67.5354817   2.3177764  34.8918961  81.2054049
   2.9636627  34.3817915  81.6941275   2.1094915  35.6287642  81.7797475
  14.8431156  41.9599808  86.7046190  15.7122316  42.1340460  86.3432825
  14.3637908  42.7794225  86.5821919  10.8381374  29.1559005  66.9577946
  10.8260044  30.1000845  67.1146216  11.7304796  28.9729151  66.6637407
   9.0117336  49.0796909  78.3835624   9.9144583  49.1120519  78.7002119
   8.7854706  48.1497360  78.3981959  10.7670938  47.8327896  75.0445702
   9.8166569  47.8329757  74.9310074  11.0703424  47.0860630  74.5281737
  14.6533494  25.7501782  71.2123882  13.8865890  25.1960269  71.3580565
  15.0644199  25.8223651  72.0738034   6.6575255  32.0386578  85.3029064
   7.5206716  31.6823383  85.5132388   6.0840666  31.7000473  85.9904468
  26.5023632  53.6688434  76.1091465  27.1402042  53.5495182  75.4054805
  26.3844475  54.6169278  76.1679417  23.3113338  53.6215862  76.0452989
  22.9731850  53.5056927  75.1573524  24.1803106  53.2207027  76.0253995
  19.1700154  55.4751339  72.0349880  18.6065019  55.3841276  71.2666168
  19.0552549  54.6551243  72.5152373  23.7933121  54.7750714  82.0039195
  23.7821762  54.3803512  81.1319698  23.9553761  54.0416787  82.5972966
  16.7164586  56.9702530  74.8734101  17.5085878  56.6293355  74.4580400
  16.9561236  57.0797505  75.7936254  24.7499713  59.1422306  67.3464345
  24.0987692  59.7276387  66.9598359  25.5444075  59.6728501  67.4059383
  18.6755340  56.2311444  67.7451479  19.4486216  55.6840431  67.6064355
  19.0280739  57.0955693  67.9565941  20.5140382  57.5587826  80.9518379
  20.2230248  58.4633457  80.8365045  21.1497367  57.6004353  81.6662448
  21.4396589  54.9364674  77.5419738  22.0360161  54.7120697  76.8276701
  21.4971561  54.1949420  78.1445186  21.0121617  52.3904110  65.3769929
  21.2647138  51.8685631  64.6153392  20.0746177  52.2270255  65.4796613
  26.0564900  51.3939888  73.1844673  26.8427990  50.9759311  72.8335090
  26.3203605  52.2985980  73.3526321  26.2274978  56.8312738  67.8833329
  25.5920811  56.9047365  68.5954234  25.8972384  57.4206337  67.2052409
  31.4573327  51.3315121  74.0877651  32.1898499  50.7614338  74.3215481
  30.7012683  50.9436722  74.5284157  20.7317906  54.2932216  67.5794304
  20.6154164  53.6177119  68.2475389  20.8420166  53.8064590  66.7626457
  23.0749447  53.7542363  71.2840994  22.7107654  53.2272984  71.9953915
  23.9316563  53.3640832  71.1107479  28.9798748  45.0436695  78.5472260
  28.6482073  45.9132106  78.3233475  28.3844361  44.7272979  79.2266290
  22.7154934  48.7832262  66.2802342  22.8829336  49.6512499  66.6472813
  22.5252103  48.9459544  65.3563631  25.4730267  57.2449241  77.9468172
  25.1730990  58.1474280  77.8383980  25.1281327  56.9781425  78.7989325
  18.9242749  53.6963038  73.9804877  17.9993245  53.5639252  74.1882569
  19.1727162  54.4757257  74.4774819  28.8727411  49.7631781  75.6265610
  27.9644288  49.6947190  75.3324371  28.8215007  50.2403726  76.4547435
  22.6944155  51.2389920  67.2649009  22.5743780  51.6846971  68.1034489
  21.9996743  51.5875238  66.7062547  16.2851560  53.3396312  74.8148666
  16.4143941  53.5930791  75.7288078  15.6049011  53.9324020  74.4953321
  20.4551047  64.0093562  70.9139140  20.3775077  64.9601387  70.9927621
  19.8512691  63.6639434  71.5714066  22.9468277  51.1821427  83.5700507
  22.1701611  51.7415347  83.5603372  23.5858840  51.6678210  84.0915377
  30.7389058  47.9648220  77.4043484  30.0963438  48.2580753  76.7583278
  30.2343986  47.8501140  78.2096680  28.3929221  51.7111393  68.0929343
  29.3047077  51.9438780  67.9177041  27.8838868  52.2948437  67.5304422
  21.2014649  53.9906880  83.1318474  21.9429334  54.5291924  82.8553298
  20.4951635  54.6173169  83.2890026  26.6769989  56.1336021  81.7290636
  27.0853345  55.6918431  80.9845268  25.9547250  55.5588648  81.9824828
  23.0301059  51.0708628  79.1024192  23.8762254  51.4948041  79.2458841
  22.9699697  50.4142252  79.7962756  26.9998803  56.6937212  75.4842924
  26.3707666  56.8582926  74.7818992  26.6124466  57.1078821  76.2553888
  30.8788035  57.6291649  72.8387288  30.1939074  58.0090551  72.2884321
  30.9631885  58.2386976  73.5719236  26.1800504  48.7312996  80.7605366
  25.9361436  49.4855057  80.2239642  26.4560435  49.1098344  81.5952613
  28.1338967  55.2751608  79.4382632  28.3455862  55.9183368  78.7617013
  28.0868715  54.4413925  78.9704562  25.7365196  47.8869429  76.3419204
  24.8749675  48.1850683  76.6335941  25.7627631  48.1039828  75.4100236
  22.5526765  56.4311620  72.7493010  23.0165111  56.7099323  71.9597632
  22.2883563  55.5295064  72.5666100  19.4450846  55.9783101  75.6872773
  20.0152203  56.4070370  75.0490257  20.0358958  55.6965686  76.3856958
  21.4895651  52.5534772  69.5582575  22.1919695  53.0055816  70.0256501
  21.1576280  51.9118591  70.1862468  19.9376013  51.1446529  83.9333784
  19.3074674  51.8262809  84.1669181  19.8312101  51.0329610  82.9886922
  15.2320985  50.8118325  74.8599708  14.4420039  51.0675853  74.3839819
  15.7232233  51.6266662  74.9651749  29.2484795  58.1523564  77.6104989
  30.0702239  57.7503751  77.3287671  29.2447198  58.0491798  78.5621105
  17.1835731  51.1762904  71.8183185  16.3866894  51.2881598  72.3366681
  16.9561323  51.5149556  70.9524075  23.0141398  57.7007607  79.7665700
  23.0785831  58.1628014  80.6023871  22.3052322  57.0704972  79.8948009
  13.5158688  51.0648815  77.2914699  13.7666727  51.9495825  77.5572275
  14.0518237  50.8853417  76.5189791  22.7289416  59.3675715  69.6344680
  22.5935091  60.2127250  70.0629528  23.2699229  59.5694992  68.8710614
  19.2156756  45.4467294  86.2959035  18.8223701  44.8933493  86.9706679
  20.0322896  45.7577873  86.6865553  16.1818813  56.8851153  70.2072605
  16.6943334  57.6794403  70.3578170  16.8341526  56.1877443  70.1406206
  17.9913698  60.0016909  72.2895358  18.1680326  60.9234874  72.1016342
  18.7870532  59.6875328  72.7189738  22.1324717  46.8625174  83.8879292
  22.8734430  47.4632327  83.8083754  22.3642639  46.1202811  83.3297334
  17.2766055  52.0481541  82.1657521  17.1619570  51.1466798  82.4664620
  16.4210572  52.2945238  81.8142338  24.3557892  59.9899281  83.7645022
  23.9121747  59.2035660  83.4465926  25.0175106  60.1778432  83.0988913
  19.1145014  61.5195083  78.2905700  19.6652439  61.3912146  77.5182694
  18.2756489  61.8189972  77.9400593  26.4539130  60.2702081  81.7926423
  26.4357606  61.0910962  81.3006692  27.3759051  60.1456156  82.0176564
  22.9112185  57.7846211  82.6349932  23.4440521  57.0234499  82.4049240
  22.3826266  57.4919862  83.3774086  26.0781880  42.8906276  78.1643573
  25.7346149  43.7807918  78.0882684  26.4460842  42.7007934  77.3013158
  14.1467730  55.2139807  70.9832175  14.9842952  55.6236815  70.7665883
  14.3245998  54.2739249  70.9532369  26.0432162  52.8814888  66.6716008
  25.5278786  53.6519492  66.9104396  25.7709471  52.2080024  67.2949070
  23.6279273  47.7264588  71.7301247  22.7720870  47.3371439  71.5506886
  24.0406225  47.8056549  70.8701032  25.1578420  45.2610932  76.1292807
  24.6543216  45.2241067  75.3160612  25.4509027  46.1703674  76.1889463
  21.4021306  45.3449661  75.1358988  22.2674303  45.1492470  74.7764878
  21.4698815  45.1160013  76.0628345  31.0166436  55.6347242  68.6069182
  30.2395879  55.2958402  68.1624344  31.6957917  55.6399865  67.9324147
  25.8318465  50.7541980  68.4975790  25.5268601  51.0688129  69.3485933
  26.7848908  50.8323400  68.5403123  24.2764897  56.9132203  70.1468744
  23.7486259  56.1784963  69.8341981  23.7752400  57.6906879  69.9008712
  29.2557743  55.1081223  75.2635790  28.5981418  55.7980485  75.3515919
  30.0598143  55.4977655  75.6069776  19.0083625  47.5751869  72.5075355
  19.5827377  47.3527051  71.7748548  19.5954607  47.6440564  73.2603956
  28.0663202  53.4625596  73.3139732  28.5795084  54.0955588  73.8161441
  28.7164426  52.8626792  72.9483092  19.3353212  49.6056330  66.5271240
  18.4990524  49.9431017  66.8480515  19.1957982  49.4705310  65.5898377
  21.3106293  44.4493118  71.2350425  20.6570705  44.1342135  70.6107039
  21.2686767  43.8268859  71.9610247  22.4217498  54.7312413  63.1503717
  21.5144559  54.5001667  63.3494866  22.9188529  53.9350033  63.3377698
  25.3285576  63.4409920  66.0700403  24.6547275  63.7441617  66.6785361
  25.7151398  64.2439001  65.7205860  24.5444033  50.9375052  75.5598072
  23.6266594  51.1589999  75.4019760  24.9604177  51.0121362  74.7009780
  25.3279081  52.3366467  70.6900752  26.0750900  52.8487865  70.3807874
  25.5970670  52.0150520  71.5505146  23.6005731  54.8325008  67.6727707
  22.6916950  54.5484041  67.7700176  23.6300815  55.2524087  66.8131014
  28.8324998  58.4431598  71.4418874  28.3787325  57.6022508  71.4984065
  28.2018965  59.0792996  71.7793654  27.7757918  49.3723584  72.6719542
  27.0380675  48.8600970  73.0029784  28.0284691  48.9323965  71.8602819
  27.2757938  60.2808094  72.3768692  27.5680912  60.8413151  71.6581058
  27.7856558  60.5736655  73.1321852  27.8769545  42.1499836  73.2661311
  28.1828422  41.2897199  72.9787226  28.6022150  42.7417456  73.0660305
  14.1693901  52.5530522  71.6542909  13.9718301  51.9599883  70.9293976
  13.6140565  52.2482732  72.3718848  22.1490625  52.4453629  73.7737502
  22.2039235  51.4927465  73.6979979  21.3381827  52.6013068  74.2578801
  23.2981819  56.3733752  65.0115785  22.8601249  55.6569611  64.5521423
  24.0392260  56.6009867  64.4500877  20.0882985  51.0630688  71.5327881
  19.2750850  51.3624859  71.9393073  20.5841979  50.6686377  72.2502363
  22.2391563  61.0588445  73.4662146  22.1967742  61.2849292  72.5370678
  23.1554262  60.8251820  73.6147947  25.6857197  51.5272513  80.3642775
  26.0406584  51.7543986  81.2237241  26.3329328  51.8590890  79.7420030
  31.4154934  54.6490949  71.0692104  31.2772832  54.8392545  70.1413293
  31.0591152  55.4110332  71.5260155  19.5797060  48.6349044  77.1489116
  20.2196439  48.4937803  76.4512079  18.7474590  48.3483557  76.7727718
  31.4424313  56.7167476  76.0803375  31.8760820  56.6242765  76.9286429
  32.1555894  56.6924976  75.4423391  20.3557364  57.9351474  73.2624108
  21.1497962  57.4401795  73.0606683  19.6449056  57.4069338  72.8991814
  25.1752208  60.3169570  77.6136476  25.2289230  60.8860506  78.3814192
  24.3066989  60.4871455  77.2490513  16.6640127  52.0794556  69.3383861
  15.7337715  52.0179012  69.5553823  16.7597599  51.5570509  68.5420502
  16.5825676  48.6049369  71.9262103  16.8432493  49.5194702  71.8171263
  17.4042848  48.1373812  72.0758716  18.0550601  50.0187126  79.0960927
  18.7273655  49.8104488  78.4473576  17.2280388  49.8209212  78.6566160
  32.3039863  56.7591177  78.6136261  32.4975753  57.6636987  78.8595536
  32.2040481  56.2998596  79.4474846  23.9576173  46.6449067  81.1126588
  23.3104088  47.3439017  81.0191065  24.7277189  47.0785211  81.4802836
  27.3654971  56.9097919  84.1877141  27.2140478  56.6808471  83.2707225
  27.3559651  57.8668521  84.2008486  24.1340308  54.4829832  79.1723408
  25.0632368  54.6340992  78.9992375  23.7131338  54.5713853  78.3172054
  22.9328640  58.5080496  76.9421945  22.7939725  58.1399281  77.8147884
  22.1443236  59.0228136  76.7705903  23.5276792  63.6089593  68.2847482
  23.7028547  63.1377636  69.0993105  22.8409580  64.2355359  68.5128743
  24.4833855  57.8862099  74.3310783  24.1483687  57.8462869  75.2268433
  23.9837800  57.2206815  73.8581193  18.4578099  53.2929729  79.8563364
  18.3197897  52.5609968  80.4574903  19.3683022  53.2038629  79.5747552
  27.4193046  55.2318133  64.6047843  26.8022217  54.5064962  64.5080896
  26.9509535  55.9927494  64.2614917  21.0860399  53.0049688  79.3447044
  21.7960018  52.3642881  79.3033662  21.0429708  53.2562583  80.2673225
  29.0747178  59.9417042  82.2653623  29.0159724  59.2576262  81.5984206
  29.4766696  60.6836032  81.8134249  19.7989333  49.9914906  81.1642684
  19.2626690  49.5405645  81.8164280  19.2106042  50.1260815  80.4213148
  18.0937877  66.7578956  75.0587342  18.3334475  67.3897480  75.7366361
  17.2507073  66.4066996  75.3452701  19.2091592  49.4503558  63.7269147
  18.3321059  49.3292359  63.3631394  19.6849345  48.6589636  63.4748036
  29.0764585  57.9056626  80.4967603  28.1891364  57.5682548  80.6194002
  29.6463136  57.1739657  80.7336368  10.7293732  54.2380717  73.8210654
  11.4164772  53.9242448  73.2331670  10.5741861  55.1422082  73.5477906
  15.5328455  49.1270914  78.2495678  15.4486643  48.5196584  77.5146088
  14.7111161  49.6179932  78.2505174  22.6065739  62.5658078  77.4628846
  22.5335910  63.3713050  77.9748151  22.1643132  62.7650044  76.6376868
  22.3955518  61.8029848  70.9731668  21.6123040  62.3451528  71.0669892
  23.0948263  62.3203828  71.3725909  25.7052168  47.6124478  73.6165873
  26.2020868  46.8594440  73.2966943  24.9339150  47.6488794  73.0509082
  33.5581926  53.3164843  75.2584165  33.5471802  54.1989559  74.8878098
  32.6899305  52.9636394  75.0638702  26.7881949  56.3696165  71.1904296
  25.8538228  56.4897627  71.0209001  26.9658618  55.4668632  70.9264306
  22.2887137  49.7541861  73.3437558  21.9184925  49.2012901  74.0318463
  22.7846230  49.1499994  72.7912558  30.1754500  52.2113484  71.7254331
  30.6414953  53.0441476  71.6514633  30.6262001  51.7458466  72.4299589
  20.1176336  60.2139356  80.4392576  20.8185795  60.8475839  80.5921970
  19.6471451  60.5554087  79.6788215  28.2430732  58.5557305  68.7240483
  28.5190575  58.4413900  69.6334357  27.3735230  58.1574790  68.6852656
  28.1471163  44.5794071  75.7645232  27.2334243  44.8098298  75.9327439
  28.5764265  44.6632515  76.6159264  27.9177622  52.7683963  78.2645126
  27.2649072  53.0159870  77.6097579  28.2958002  51.9548101  77.9307603
  24.8784796  62.8043656  72.3673296  25.0607190  61.9865312  72.8301049
  25.7017782  63.0211348  71.9298186  25.2126961  61.7311841  69.6288345
  25.7414728  61.2204296  69.0158507  25.4755181  61.4154372  70.4933878
  23.9665195  53.5103774  84.7511163  23.2905832  53.4097903  85.4213538
  24.7892829  53.3542988  85.2147160  15.7144054  59.7475711  77.3723678
  16.2997491  59.0019399  77.5051583  15.5168892  60.0579667  78.2560342
  18.5682709  62.7826958  72.3886121  17.8993084  63.2673086  71.9050161
  18.4295579  63.0296178  73.3029499  10.3061709  52.3181311  76.0928121
  10.3445808  51.7844902  76.8865240   9.8002001  51.7916516  75.4739099
  17.6852471  47.1645851  79.5890664  17.7493797  48.0260682  79.1768061
  17.6219591  46.5519853  78.8563022  17.1604743  49.2368984  83.2363698
  17.7876782  48.8546061  83.8501222  16.3032662  49.0183186  83.6019391
  13.9370286  51.0445413  69.1682053  14.2323727  50.1356091  69.1149107
  13.0358322  51.0233152  68.8463055  17.4664533  49.1201410  75.1509601
  16.7451119  49.7337377  75.0117075  18.2557789  49.6559174  75.0726247
  27.9091273  60.5661697  77.6012011  26.9621609  60.4467048  77.5290338
  28.2574046  59.6784195  77.6838273  20.2690847  46.4555836  81.4250253
  20.7925248  46.7018133  82.1876563  20.0503180  47.2875871  81.0053391
  15.6658128  48.7259511  69.2921378  15.3370834  47.8456890  69.1096484
  16.0197498  48.6707179  70.1797767  24.9137707  60.3614413  73.8016364
  24.7662669  59.4331121  73.9823934  25.7391200  60.3834504  73.3173439
  18.7799951  49.0132480  69.6596856  19.1196023  49.5418402  68.9375464
  19.2272071  49.3512887  70.4355422  28.5171828  61.1842972  74.8881236
  29.4418376  60.9785833  74.7505687  28.3487132  60.9359373  75.7970578
  21.4743392  47.3969531  79.1099924  21.1340212  46.5977344  79.5120604
  20.7682398  47.6971242  78.5376757  22.1259864  44.4818844  77.5627247
  22.9485933  44.0079322  77.4406137  22.3697927  45.2609327  78.0625933
  20.7668098  47.5107102  67.8590148  21.4876461  47.8888355  67.3553865
  20.1433402  48.2295979  67.9625126  24.9099221  48.2152251  68.7948481
  25.1262835  49.0976889  68.4937309  24.4293288  47.8238464  68.0654123
  19.6498442  51.1737964  75.3719225  19.5043023  51.4878267  76.2643507
  19.1723646  51.7922865  74.8190124  21.5094825  48.1640512  75.4200115
  21.4956394  47.2681606  75.0832413  22.2267253  48.1711176  76.0538401
  23.3620956  48.5977852  77.4653242  23.1038734  49.5194923  77.4637573
  22.8305996  48.2008287  78.1553706  28.3067145  61.7028640  70.2443328
  28.4804022  61.1375062  69.4917180  28.7996036  62.5029534  70.0622818
  14.1244104  53.7143309  78.3106887  13.5797573  54.4903117  78.4427161
  15.0023454  54.0614113  78.1526008  20.9131721  47.0454893  70.6887685
  21.0347632  46.1171539  70.8878573  20.6233763  47.0593578  69.7766000
  23.7822911  44.7309803  73.8254405  23.8044608  44.7949136  72.8706384
  24.1990970  43.8914312  74.0194911  34.1606536  54.4665062  71.8633627
  34.6037682  53.7172388  71.4652751  33.2833046  54.4575199  71.4807359
  29.2942317  61.0195404  67.3440226  29.9893222  61.6402097  67.5627541
  29.6365467  60.1690755  67.6192604  14.9110126  52.8413205  81.2037043
  14.1691862  52.9895840  81.7901674  14.5902871  53.1021471  80.3403793
  31.1933740  58.4695109  68.8727557  31.7185064  58.8082382  68.1476877
  31.1056093  57.5342125  68.6890691  22.8553789  62.3829183  81.0017433
  23.1640915  62.1378330  81.8740133  23.6529271  62.5875822  80.5136304
  22.8774401  64.5367093  73.2322810  22.4379391  64.0443471  73.9255667
  23.6282518  63.9940060  72.9914885  15.3566740  60.7278634  73.2347438
  16.1824760  60.4282405  72.8546082  15.0060792  59.9586256  73.6837227
  20.3248273  60.0805102  75.3045112  19.7028282  59.4175807  75.0047340
  20.9953140  60.1066234  74.6218759  13.5575345  58.6464960  74.1936372
  12.7207253  58.2187134  74.0120373  13.5298990  58.8397403  75.1307163
  20.3972801  48.5586890  84.8977618  20.4460956  49.4349013  84.5155387
  20.9395315  48.0164283  84.3249261  31.0025521  55.9520479  81.4911483
  31.0523526  55.7870487  82.4327006  30.8939445  55.0847739  81.1009364
  19.8861780  58.6309025  68.7803572  20.0349900  59.3144490  68.1270245
  20.6928224  58.6114115  69.2953028  28.2929284  51.9351408  82.8070790
  29.1939147  51.7957872  82.5154788  28.3677258  52.1005862  83.7468967
  22.6272089  49.3118262  81.6523976  21.7575398  49.6051828  81.3806565
  22.8631569  49.8958707  82.3731240  32.5043718  58.3717421  81.7353505
  32.2128526  58.7347402  82.5716966  31.8915849  57.6584429  81.5566837
  33.7039400  55.9370301  74.2556075  34.5386292  56.3760105  74.4193635
  33.8398529  55.4608954  73.4364321  30.7530906  53.4950036  80.2033563
  31.2285028  53.6877682  79.3952414  29.8296472  53.5509221  79.9576946
  17.6414413  54.6574203  69.7864641  17.3960455  53.7536533  69.9844851
  17.8110328  54.6591353  68.8444119  25.3311123  45.5297879  79.1689397
  25.8493067  46.2658906  78.8435885  24.9766256  45.8361872  80.0036156
  16.9110061  50.3902560  67.2850803  16.2179306  50.4646915  66.6290839
  16.6661812  49.6262904  67.8072319  25.5823717  41.9498162  74.6890293
  25.8625471  41.2821351  75.3150720  26.3674324  42.1427257  74.1764957
  23.3857186  61.1257156  66.2515320  22.8131153  61.7447343  65.7985791
  23.9589979  61.6756517  66.7855242  29.4532575  50.3715796  78.4361868
  30.4049998  50.4713893  78.4574092  29.2836026  49.5794064  78.9459953
  27.4746955  47.4571379  78.6221269  26.8796887  47.7376392  77.9267758
  27.1896652  47.9465280  79.3938010  26.6054445  61.4094306  67.3823902
  27.5385119  61.3439867  67.5856777  26.5177658  62.2450573  66.9238435
  29.2342462  60.7260176  64.3427849  29.1556094  60.3920040  65.2363607
  30.0552129  61.2181944  64.3419322  31.9320653  53.5921915  77.5504168
  31.8996973  52.6537916  77.7363852  32.5421277  53.6705952  76.8169993
  23.7703984  52.4617968  63.5931372  24.7163089  52.3324176  63.6619790
  23.3918229  51.7232630  64.0700800  29.7425869  44.1273974  73.5558264
  29.5450690  43.8189063  74.4401596  30.3525574  44.8535613  73.6856194
  23.6542677  56.5135715  85.0532029  24.5745686  56.6914314  85.2472076
  23.6192260  55.5691760  84.9011728  21.9546901  50.3867945  63.5286257
  21.0478357  50.0901057  63.6048971  22.2322882  50.0897763  62.6620544
  12.8724842  51.7074308  73.9785304  12.5527626  50.8539616  73.6859678
  12.3258270  51.9222886  74.7343271  16.6504749  54.4236749  77.6954810
  16.8690759  55.3553857  77.7142844  17.0630523  54.0644724  78.4809614
  23.5708967  44.9304834  69.6830499  22.7609695  44.5851919  70.0585745
  24.2593384  44.6212378  70.2718110  25.4999515  44.0082881  71.3054795
  26.0530554  44.4278335  71.9644818  25.7369602  43.0818629  71.3477751
  21.5232614  49.9969955  87.0857559  21.4229341  50.9464312  87.0169650
  21.3054157  49.6688194  86.2133629  20.7245686  47.2454880  63.6698237
  21.5864850  47.5709778  63.9294054  20.9096030  46.4586376  63.1571302
  12.7413102  55.3277220  75.9478425  12.0476573  54.9131172  75.4348380
  13.4886093  55.3697756  75.3511844  28.8778322  46.1183406  70.8133460
  28.2976991  46.7768210  70.4311512  28.6114255  45.2960751  70.4020877
  27.3281889  45.5188464  73.0154780  27.8281667  45.6304999  72.2069099
  27.9717497  45.2149517  73.6555588  21.3863885  53.4267094  85.9022621
  20.9030966  54.2267454  86.1086510  21.4724824  53.4375039  84.9490065
  14.6549844  55.2595473  73.8244440  14.6320532  55.3583161  72.8726323
  14.9650481  56.1060624  74.1461606  17.3137222  57.3171628  77.9391055
  18.2680476  57.2855571  77.8720986  17.1149746  56.8562252  78.7541281
  17.9036604  55.8872745  80.5061852  18.7229493  56.3816823  80.5296690
  18.1773412  54.9704713  80.4779420  27.6603200  48.2783497  69.8689808
  26.7729055  48.5633147  69.6510003  28.0757189  48.1177260  69.0217085
  31.0117736  48.3030018  73.5844147  31.7878127  48.7926470  73.8568764
  30.2865871  48.7288072  74.0416017  33.4490295  49.0157637  74.6418088
  34.0434786  48.7753373  73.9311396  33.5216879  48.2964768  75.2691624
  15.6687451  62.8591248  74.9561252  15.5341919  62.0991649  74.3899251
  15.2519513  63.5832148  74.4890041  26.8046414  58.0428172  63.9637828
  27.5082264  58.2478174  64.5795483  26.0809063  58.6104933  64.2286911
  27.6344224  53.7938033  70.0840098  27.5779425  54.2506584  69.2447730
  28.1872567  53.0328717  69.9062941  31.4449030  49.5827765  70.9090217
  31.1885964  49.1824400  71.7398425  30.8201898  50.2971559  70.7840357
  18.8256577  63.7560565  75.1679695  18.7088961  64.7005997  75.0658385
  18.0049023  63.4534127  75.5565494  28.7133111  58.4810701  66.0136288
  29.5478715  58.0491899  65.8313763  28.5517454  58.3092714  66.9413182
  28.3679003  54.9842814  67.3792627  28.3127807  54.8187085  66.4381071
  27.7425059  55.6918847  67.5354817  13.1571518  50.2210878  81.2054049
  13.8030382  49.7109832  81.6941275  12.9488670  50.9579560  81.7797475
  25.6824911  57.2891726  86.7046190  26.5516070  57.4632378  86.3432825
  25.2031662  58.1086143  86.5821919  21.6775129  44.4850923  66.9577946
  21.6653799  45.4292763  67.1146216  22.5698551  44.3021068  66.6637407
  19.8511091  64.4088827  78.3835624  20.7538338  64.4412437  78.7002119
  19.6248461  63.4789278  78.3981959  21.6064693  63.1619813  75.0445702
  20.6560324  63.1621675  74.9310074  21.9097179  62.4152548  74.5281737
  25.4927248  41.0793700  71.2123882  24.7259644  40.5252186  71.3580565
  25.9037953  41.1515568  72.0738034  17.4969009  47.3678495  85.3029064
  18.3600471  47.0115300  85.5132388  16.9234420  47.0292390  85.9904468
  29.5149094  71.5603361  67.7451479  30.2879970  71.0132348  67.6064355
  29.8674493  72.4247611  67.9565941  31.8515372  67.7196027  65.3769929
  32.1040893  67.1977549  64.6153392  30.9139931  67.5562173  65.4796613
  31.5711661  69.6224133  67.5794304  31.4547919  68.9469037  68.2475389
  31.6813921  69.1356507  66.7626457  33.5548689  64.1124180  66.2802342
  33.7223091  64.9804416  66.6472813  33.3645858  64.2751462  65.3563631
  33.5337910  66.5681838  67.2649009  33.4137535  67.0138888  68.1034489
  32.8390498  66.9167155  66.7062547  32.3289406  67.8826690  69.5582575
  33.0313449  68.3347733  70.0256501  31.9970034  67.2410509  70.1862468
  28.0229485  66.5054822  71.8183185  27.2260649  66.6173516  72.3366681
  27.7955077  66.8441474  70.9524075  36.9175634  58.2198194  78.1643573
  36.5739903  59.1099836  78.0882684  37.2854597  58.0299852  77.3013158
  34.4673028  63.0556506  71.7301247  33.6114624  62.6663356  71.5506886
  34.8799980  63.1348467  70.8701032  35.9972174  60.5902849  76.1292807
  35.4936970  60.5532984  75.3160612  36.2902781  61.4995592  76.1889463
  32.2415060  60.6741579  75.1358988  33.1068057  60.4784388  74.7764878
  32.3092569  60.4451931  76.0628345  29.8477379  62.9043787  72.5075355
  30.4221131  62.6818968  71.7748548  30.4348362  62.9732481  73.2603956
  30.1746967  64.9348248  66.5271240  29.3384279  65.2722935  66.8480515
  30.0351736  64.7997228  65.5898377  32.1500047  59.7785036  71.2350425
  31.4964459  59.4634053  70.6107039  32.1080521  59.1560776  71.9610247
  25.0087656  67.8822440  71.6542909  24.8112056  67.2891801  70.9293976
  24.4534320  67.5774650  72.3718848  30.9276739  66.3922606  71.5327881
  30.1144605  66.6916777  71.9393073  31.4235734  65.9978295  72.2502363
  27.5033882  67.4086474  69.3383861  26.5731470  67.3470929  69.5553823
  27.5991354  66.8862427  68.5420502  27.4219431  63.9341287  71.9262103
  27.6826248  64.8486620  71.8171263  28.2436603  63.4665729  72.0758716
  30.0485347  64.7795475  63.7269147  29.1714813  64.6584276  63.3631394
  30.5243100  63.9881554  63.4748036  21.5687487  69.5672635  73.8210654
  22.2558527  69.2534365  73.2331670  21.4135616  70.4714000  73.5477906
  36.5445923  62.9416395  73.6165873  37.0414622  62.1886358  73.2966943
  35.7732904  62.9780712  73.0509082  21.1455463  67.6473229  76.0928121
  21.1839563  67.1136819  76.8865240  20.6395756  67.1208434  75.4739099
  28.5246225  62.4937769  79.5890664  28.5887552  63.3552600  79.1768061
  28.4613346  61.8811771  78.8563022  24.7764041  66.3737331  69.1682053
  25.0717482  65.4648009  69.1149107  23.8752076  66.3525070  68.8463055
  28.3058288  64.4493327  75.1509601  27.5844873  65.0629295  75.0117075
  29.0951543  64.9851092  75.0726247  26.5051882  64.0551428  69.2921378
  26.1764588  63.1748807  69.1096484  26.8591253  63.9999097  70.1797767
  29.6193705  64.3424398  69.6596856  29.9589778  64.8710319  68.9375464
  30.0665826  64.6804804  70.4355422  32.9653618  59.8110761  77.5627247
  33.7879687  59.3371239  77.4406137  33.2091682  60.5901245  78.0625933
  31.6061852  62.8399020  67.8590148  32.3270215  63.2180273  67.3553865
  30.9827157  63.5587897  67.9625126  32.3488580  63.4932430  75.4200115
  32.3350148  62.5973523  75.0832413  33.0661008  63.5003094  76.0538401
  31.7525476  62.3746810  70.6887685  31.8741387  61.4463456  70.8878573
  31.4627518  62.3885496  69.7766000  34.6216666  60.0601721  73.8254405
  34.6438363  60.1241054  72.8706384  35.0384725  59.2206229  74.0194911
  28.4808168  69.9866120  69.7864641  28.2354209  69.0828450  69.9844851
  28.6504082  69.9883271  68.8444119  36.1704877  60.8589797  79.1689397
  36.6886821  61.5950824  78.8435885  35.8160010  61.1653790  80.0036156
  27.7503815  65.7194478  67.2850803  27.0573060  65.7938833  66.6290839
  27.5055567  64.9554822  67.8072319  36.4217472  57.2790079  74.6890293
  36.7019225  56.6113268  75.3150720  37.2068078  57.4719175  74.1764957
  34.6097739  67.7909886  63.5931372  35.5556843  67.6616094  63.6619790
  34.2311984  67.0524548  64.0700800  32.7940656  65.7159862  63.5286257
  31.8872111  65.4192975  63.6048971  33.0716637  65.4189681  62.6620544
  23.7118596  67.0366226  73.9785304  23.3921380  66.1831534  73.6859678
  23.1652024  67.2514804  74.7343271  34.4102721  60.2596752  69.6830499
  33.6003450  59.9143837  70.0585745  35.0987138  59.9504296  70.2718110
  36.3393270  59.3374799  71.3054795  36.8924308  59.7570252  71.9644818
  36.5763356  58.4110547  71.3477751  31.5639440  62.5746798  63.6698237
  32.4258604  62.9001696  63.9294054  31.7489784  61.7878294  63.1571302
  32.5168883  59.8142841  66.9577946  32.5047553  60.7584681  67.1146216
  33.4092305  59.6312986  66.6637407  36.3321003  56.4085617  71.2123882
  35.5653399  55.8544104  71.3580565  36.7431708  56.4807486  72.0738034
  40.8487663  86.1335174  72.0349880  40.2852528  86.0425111  71.2666168
  40.7340058  85.3135078  72.5152373  46.4287222  89.8006142  67.3464345
  45.7775201  90.3860222  66.9598359  47.2231584  90.3312337  67.4059383
  40.3542849  86.8895279  67.7451479  41.1273725  86.3424266  67.6064355
  40.7068248  87.7539528  67.9565941  42.6909126  83.0487945  65.3769929
  42.9434647  82.5269466  64.6153392  41.7533686  82.8854090  65.4796613
  47.9062487  87.4896574  67.8833329  47.2708320  87.5631200  68.5954234
  47.5759893  88.0790172  67.2052409  42.4105415  84.9516051  67.5794304
  42.2941673  84.2760954  68.2475389  42.5207675  84.4648425  66.7626457
  44.7536956  84.4126198  71.2840994  44.3895163  83.8856819  71.9953915
  45.6104072  84.0224667  71.1107479  42.1338556  94.6677397  70.9139140
  42.0562586  95.6185222  70.9927621  41.5300200  94.3223269  71.5714066
  50.0716730  82.3695228  68.0929343  50.9834586  82.6022615  67.9177041
  49.5626377  82.9532273  67.5304422  59.0178297  85.1546148  73.9589961
  58.2642005  84.5853546  73.8033965  59.1525838  85.1208812  74.9060595
  44.4076925  90.0259550  69.6344680  44.2722600  90.8711086  70.0629528
  44.9486738  90.2278828  68.8710614  37.8606322  87.5434988  70.2072605
  38.3730843  88.3378238  70.3578170  38.5129035  86.8461278  70.1406206
  39.6701207  90.6600744  72.2895358  39.8467835  91.5818709  72.1016342
  40.4658041  90.3459163  72.7189738  40.7932523  92.1778918  78.2905700
  41.3439948  92.0495981  77.5182694  39.9543998  92.4773807  77.9400593
  35.8255239  85.8723642  70.9832175  36.6630461  86.2820651  70.7665883
  36.0033507  84.9323084  70.9532369  47.7219671  83.5398723  66.6716008
  47.2066295  84.3103328  66.9104396  47.4496980  82.8663859  67.2949070
  52.6953945  86.2931078  68.6069182  51.9183388  85.9542237  68.1624344
  53.3745426  86.2983701  67.9324147  45.9552406  87.5716038  70.1468744
  45.4273768  86.8368798  69.8341981  45.4539909  88.3490715  69.9008712
  44.1005006  85.3896249  63.1503717  43.1932068  85.1585502  63.3494866
  44.5976038  84.5933868  63.3377698  47.0073085  94.0993756  66.0700403
  46.3334784  94.4025453  66.6785361  47.3938907  94.9022836  65.7205860
  45.2793240  85.4908843  67.6727707  44.3704459  85.2067876  67.7700176
  45.3088324  85.9107922  66.8131014  48.9545447  90.9391930  72.3768692
  49.2468421  91.4996987  71.6581058  49.4644067  91.2320491  73.1321852
  35.8481410  83.2114358  71.6542909  35.6505810  82.6183718  70.9293976
  35.2928074  82.9066568  72.3718848  44.9769328  87.0317587  65.0115785
  44.5388758  86.3153446  64.5521423  45.7179769  87.2593702  64.4500877
  43.9179072  91.7172281  73.4662146  43.8755251  91.9433127  72.5370678
  44.8341771  91.4835655  73.6147947  53.0942443  85.3074784  71.0692104
  52.9560341  85.4976380  70.1413293  52.7378661  86.0694167  71.5260155
  42.0344873  88.5935310  73.2624108  42.8285471  88.0985630  73.0606683
  41.3236565  88.0653173  72.8991814  45.2064301  94.2673428  68.2847482
  45.3816056  93.7961471  69.0993105  44.5197089  94.8939194  68.5128743
  49.0980555  85.8901969  64.6047843  48.4809726  85.1648797  64.5080896
  48.6297044  86.6511329  64.2614917  39.7725386  97.4162791  75.0587342
  40.0121984  98.0481315  75.7366361  38.9294582  97.0650831  75.3452701
  44.0743027  92.4613683  70.9731668  43.2910549  93.0035364  71.0669892
  44.7735772  92.9787663  71.3725909  48.4669458  87.0280000  71.1904296
  47.5325737  87.1481463  71.0209001  48.6446127  86.1252467  70.9264306
  51.8542009  82.8697319  71.7254331  52.3202462  83.7025311  71.6514633
  52.3049510  82.4042301  72.4299589  49.9218241  89.2141141  68.7240483
  50.1978084  89.0997735  69.6334357  49.0522739  88.8158626  68.6852656
  46.5572305  93.4627492  72.3673296  46.7394699  92.6449147  72.8301049
  47.3805291  93.6795184  71.9298186  46.8914470  92.3895677  69.6288345
  47.4202236  91.8788131  69.0158507  47.1542690  92.0738207  70.4933878
  37.3931563  90.4059546  77.3723678  37.9785000  89.6603234  77.5051583
  37.1956401  90.7163503  78.2560342  40.2470218  93.4410793  72.3886121
  39.5780593  93.9256921  71.9050161  40.1083088  93.6880014  73.3029499
  44.3875487  95.4754537  78.9868779  44.9393795  95.6386158  79.7517864
  44.7281680  96.0658975  78.3148804  47.5243874  93.4236512  75.9732461
  47.3995013  92.6226252  75.4643407  48.1822965  93.9182706  75.4846431
  46.5925216  91.0198249  73.8016364  46.4450178  90.0914956  73.9823934
  47.4178709  91.0418339  73.3173439  49.9854654  92.3612475  70.2443328
  50.1591531  91.7958897  69.4917180  50.4783545  93.1613370  70.0622818
  55.8394045  85.1248898  71.8633627  56.2825191  84.3756223  71.4652751
  54.9620555  85.1159034  71.4807359  50.9729826  91.6779239  67.3440226
  51.6680731  92.2985932  67.5627541  51.3152976  90.8274591  67.6192604
  52.8721249  89.1278945  68.8727557  53.3972573  89.4666218  68.1476877
  52.7843602  88.1925960  68.6890691  44.5561910  95.1950928  73.2322810
  44.1166900  94.7027307  73.9255667  45.3070027  94.6523896  72.9914885
  37.0354249  91.3862469  73.2347438  37.8612269  91.0866241  72.8546082
  36.6848301  90.6170091  73.6837227  42.0035782  90.7388937  75.3045112
  41.3815791  90.0759642  75.0047340  42.6740649  90.7650069  74.6218759
  35.2362854  89.3048795  74.1936372  34.3994762  88.8770970  74.0120373
  35.2086499  89.4981239  75.1307163  41.5649289  89.2892861  68.7803572
  41.7137409  89.9728325  68.1270245  42.3715732  89.2697951  69.2953028
  39.3201922  85.3158038  69.7864641  39.0747964  84.4120368  69.9844851
  39.4897837  85.3175189  68.8444119  45.0644695  91.7840991  66.2515320
  44.4918662  92.4031178  65.7985791  45.6377488  92.3340353  66.7855242
  48.2841954  92.0678141  67.3823902  49.2172627  92.0023703  67.5856777
  48.1965167  92.9034408  66.9238435  50.9129971  91.3844011  64.3427849
  50.8343603  91.0503875  65.2363607  51.7339638  91.8765779  64.3419322
  45.4491493  83.1201804  63.5931372  46.3950598  82.9908012  63.6619790
  45.0705738  82.3816466  64.0700800  37.3474960  93.5175083  74.9561252
  37.2129428  92.7575484  74.3899251  36.9307022  94.2415983  74.4890041
  48.4833923  88.7012007  63.9637828  49.1869773  88.9062009  64.5795483
  47.7596572  89.2688769  64.2286911  53.1236539  80.2411600  70.9090217
  52.8673473  79.8408236  71.7398425  52.4989407  80.9555394  70.7840357
  40.5044086  94.4144400  75.1679695  40.3876470  95.3589833  75.0658385
  39.6836532  94.1117962  75.5565494  50.3920620  89.1394536  66.0136288
  51.2266224  88.7075735  65.8313763  50.2304963  88.9676550  66.9413182
  50.0466512  85.6426649  67.3792627  49.9915316  85.4770921  66.4381071
  49.4212568  86.3502682  67.5354817  41.5298600  95.0672662  78.3835624
  42.4325846  95.0996273  78.7002119  41.3035970  94.1373113  78.3981959
  43.2852202  93.8203649  75.0445702  42.3347833  93.8205510  74.9310074
  43.5884688  93.0736383  74.5281737  59.0204895  99.6564187  76.1091465
  59.6583305  99.5370935  75.4054805  58.9025738 100.6045031  76.1679417
  55.8294602  99.6091615  76.0452989  55.4913113  99.4932680  75.1573524
  56.6984370  99.2082780  76.0253995  51.6881417 101.4627092  72.0349880
  51.1246282 101.3717029  71.2666168  51.5733812 100.6426996  72.5152373
  56.3114385 100.7626467  82.0039195  56.3003025 100.3679265  81.1319698
  56.4735024 100.0292540  82.5972966  49.2345849 102.9578283  74.8734101
  50.0267141 102.6169108  74.4580400  49.4742499 103.0673258  75.7936254
  57.2680976 105.1298059  67.3464345  56.6168956 105.7152140  66.9598359
  58.0625339 105.6604254  67.4059383  51.1936603 102.2187197  67.7451479
  51.9667479 101.6716184  67.6064355  51.5462002 103.0831446  67.9565941
  53.0321646 103.5463579  80.9518379  52.7411512 104.4509210  80.8365045
  53.6678630 103.5880106  81.6662448  53.9577853 100.9240427  77.5419738
  54.5541425 100.6996450  76.8276701  54.0152824 100.1825173  78.1445186
  53.5302881  98.3779863  65.3769929  53.7828402  97.8561384  64.6153392
  52.5927440  98.2146008  65.4796613  58.5746164  97.3815641  73.1844673
  59.3609253  96.9635064  72.8335090  58.8384868  98.2861733  73.3526321
  58.7456241 102.8188491  67.8833329  58.1102074 102.8923118  68.5954234
  58.4153648 103.4082090  67.2052409  63.9754591  97.3190874  74.0877651
  64.7079763  96.7490091  74.3215481  63.2193947  96.9312475  74.5284157
  53.2499170 100.2807969  67.5794304  53.1335428  99.6052872  68.2475389
  53.3601430  99.7940343  66.7626457  55.5930711  99.7418116  71.2840994
  55.2288918  99.2148737  71.9953915  56.4497827  99.3516585  71.1107479
  55.2336198  94.7708015  66.2802342  55.4010600  95.6388252  66.6472813
  55.0433367  94.9335297  65.3563631  57.9911531 103.2324994  77.9468172
  57.6912254 104.1350033  77.8383980  57.6462590 102.9657178  78.7989325
  51.4424012  99.6838791  73.9804877  50.5174509  99.5515005  74.1882569
  51.6908425 100.4633010  74.4774819  61.3908675  95.7507535  75.6265610
  60.4825552  95.6822943  75.3324371  61.3396270  96.2279479  76.4547435
  55.2125418  97.2265673  67.2649009  55.0925044  97.6722724  68.1034489
  54.5178007  97.5750991  66.7062547  48.8032823  99.3272065  74.8148666
  48.9325204  99.5806544  75.7288078  48.1230275  99.9199773  74.4953321
  52.9732311 109.9969315  70.9139140  52.8956340 110.9477140  70.9927621
  52.3693954 109.6515187  71.5714066  63.2570321  93.9523973  77.4043484
  62.6144701  94.2456506  76.7583278  62.7525249  93.8376893  78.2096680
  60.9110485  97.6987146  68.0929343  61.8228341  97.9314533  67.9177041
  60.4020132  98.2824190  67.5304422  53.7195913  99.9782633  83.1318474
  54.4610597 100.5167677  82.8553298  53.0132898 100.6048922  83.2890026
  59.1951252 102.1211774  81.7290636  59.6034608 101.6794184  80.9845268
  58.4728514 101.5464401  81.9824828  55.5482322  97.0584381  79.1024192
  56.3943518  97.4823794  79.2458841  55.4880960  96.4018005  79.7962756
  59.5180067 102.6812965  75.4842924  58.8888929 102.8458679  74.7818992
  59.1305729 103.0954574  76.2553888  63.3969299 103.6167402  72.8387288
  62.7120337 103.9966304  72.2884321  63.4813148 104.2262729  73.5719236
  60.6520230 101.2627361  79.4382632  60.8637126 101.9059121  78.7617013
  60.6049979 100.4289678  78.9704562  58.2546459  93.8745182  76.3419204
  57.3930938  94.1726436  76.6335941  58.2808894  94.0915581  75.4100236
  55.0708029 102.4187373  72.7493010  55.5346374 102.6975076  71.9597632
  54.8064827 101.5170817  72.5666100  51.9632110 101.9658854  75.6872773
  52.5333467 102.3946123  75.0490257  52.5540222 101.6841439  76.3856958
  54.0076915  98.5410525  69.5582575  54.7100958  98.9931569  70.0256501
  53.6757543  97.8994344  70.1862468  52.4557276  97.1322282  83.9333784
  51.8255937  97.8138562  84.1669181  52.3493364  97.0205363  82.9886922
  47.7502249  96.7994078  74.8599708  46.9601303  97.0551606  74.3839819
  48.2413496  97.6142416  74.9651749  61.7666058 104.1399317  77.6104989
  62.5883502 103.7379504  77.3287671  61.7628461 104.0367551  78.5621105
  49.7016994  97.1638657  71.8183185  48.9048157  97.2757351  72.3366681
  49.4742586  97.5025309  70.9524075  55.5322662 103.6883360  79.7665700
  55.5967094 104.1503767  80.6023871  54.8233586 103.0580725  79.8948009
  46.0339952  97.0524568  77.2914699  46.2847990  97.9371578  77.5572275
  46.5699500  96.8729170  76.5189791  69.8572051 100.4838065  73.9589961
  69.1035760  99.9145463  73.8033965  69.9919593 100.4500730  74.9060595
  55.2470679 105.3551468  69.6344680  55.1116354 106.2003003  70.0629528
  55.7880492 105.5570745  68.8710614  48.7000077 102.8726906  70.2072605
  49.2124597 103.6670156  70.3578170  49.3522790 102.1753196  70.1406206
  50.5094962 105.9892662  72.2895358  50.6861590 106.9110627  72.1016342
  51.3051795 105.6751081  72.7189738  49.7947318  98.0357294  82.1657521
  49.6800833  97.1342551  82.4664620  48.9391836  98.2820991  81.8142338
  56.8739156 105.9775034  83.7645022  56.4303010 105.1911413  83.4465926
  57.5356369 106.1654185  83.0988913  51.6326277 107.5070836  78.2905700
  52.1833702 107.3787899  77.5182694  50.7937753 107.8065725  77.9400593
  58.9720394 106.2577834  81.7926423  58.9538869 107.0786715  81.3006692
  59.8940314 106.1331909  82.0176564  55.4293448 103.7721964  82.6349932
  55.9621785 103.0110252  82.4049240  54.9007529 103.4795615  83.3774086
  46.6648994 101.2015560  70.9832175  47.5024216 101.6112568  70.7665883
  46.8427261 100.2615002  70.9532369  58.5613426  98.8690641  66.6716008
  58.0460049  99.6395245  66.9104396  58.2890734  98.1955777  67.2949070
  56.1460537  93.7140341  71.7301247  55.2902133  93.3247192  71.5506886
  56.5587489  93.7932302  70.8701032  57.6759683  91.2486685  76.1292807
  57.1724479  91.2116820  75.3160612  57.9690290  92.1579427  76.1889463
  63.5347700 101.6222995  68.6069182  62.7577143 101.2834155  68.1624344
  64.2139181 101.6275618  67.9324147  58.3499729  96.7417733  68.4975790
  58.0449865  97.0563882  69.3485933  59.3030171  96.8199153  68.5403123
  56.7946161 102.9007956  70.1468744  56.2667522 102.1660716  69.8341981
  56.2933664 103.6782632  69.9008712  61.7739007 101.0956977  75.2635790
  61.1162681 101.7856238  75.3515919  62.5779406 101.4853408  75.6069776
  51.5264888  93.5627622  72.5075355  52.1008640  93.3402804  71.7748548
  52.1135871  93.6316317  73.2603956  60.5844466  99.4501349  73.3139732
  61.0976347 100.0831341  73.8161441  61.2345690  98.8502545  72.9483092
  51.8534476  95.5932083  66.5271240  51.0171788  95.9306770  66.8480515
  51.7139245  95.4581063  65.5898377  53.8287556  90.4368871  71.2350425
  53.1751968  90.1217888  70.6107039  53.7868030  89.8144612  71.9610247
  54.9398761 100.7188166  63.1503717  54.0325823 100.4877420  63.3494866
  55.4369793  99.9225786  63.3377698  57.8466840 109.4285673  66.0700403
  57.1728539 109.7317370  66.6785361  58.2332662 110.2314754  65.7205860
  57.0625296  96.9250805  75.5598072  56.1447858  97.1465752  75.4019760
  57.4785440  96.9997115  74.7009780  57.8460344  98.3242220  70.6900752
  58.5932163  98.8363618  70.3807874  58.1151934  98.0026273  71.5505146
  56.1186994 100.8200761  67.6727707  55.2098214 100.5359794  67.7700176
  56.1482078 101.2399840  66.8131014  61.3506262 104.4307351  71.4418874
  60.8968589 103.5898261  71.4984065  60.7200229 105.0668749  71.7793654
  60.2939181  95.3599337  72.6719542  59.5561938  94.8476723  73.0029784
  60.5465955  94.9199718  71.8602819  59.7939201 106.2683847  72.3768692
  60.0862175 106.8288904  71.6581058  60.3037822 106.5612408  73.1321852
  60.3950809  88.1375589  73.2661311  60.7009686  87.2772952  72.9787226
  61.1203414  88.7293209  73.0660305  46.6875165  98.5406275  71.6542909
  46.4899565  97.9475636  70.9293976  46.1321829  98.2358485  72.3718848
  54.6671888  98.4329382  73.7737502  54.7220498  97.4803218  73.6979979
  53.8563090  98.5888821  74.2578801  55.8163082 102.3609505  65.0115785
  55.3782512 101.6445364  64.5521423  56.5573523 102.5885620  64.4500877
  52.6064248  97.0506442  71.5327881  51.7932114  97.3500612  71.9393073
  53.1023243  96.6562130  72.2502363  54.7572826 107.0464198  73.4662146
  54.7149005 107.2725045  72.5370678  55.6735525 106.8127573  73.6147947
  58.2038460  97.5148266  80.3642775  58.5587848  97.7419739  81.2237241
  58.8510591  97.8466643  79.7420030  63.9336197 100.6366702  71.0692104
  63.7954096 100.8268298  70.1413293  63.5772416 101.3986085  71.5260155
  52.0978323  94.6224797  77.1489116  52.7377702  94.4813556  76.4512079
  51.2655854  94.3359310  76.7727718  63.9605577 102.7043229  76.0803375
  64.3942083 102.6118518  76.9286429  64.6737157 102.6800729  75.4423391
  52.8738627 103.9227227  73.2624108  53.6679226 103.4277548  73.0606683
  52.1630319 103.3945091  72.8991814  57.6933472 106.3045323  77.6136476
  57.7470494 106.8736259  78.3814192  56.8248253 106.4747208  77.2490513
  49.1821391  98.0670309  69.3383861  48.2518979  98.0054765  69.5553823
  49.2778863  97.5446262  68.5420502  49.1006940  94.5925122  71.9262103
  49.3613757  95.5070455  71.8171263  49.9224112  94.1249565  72.0758716
  50.5731865  96.0062879  79.0960927  51.2454918  95.7980241  78.4473576
  49.7461651  95.8084965  78.6566160  64.8221126 102.7466930  78.6136261
  65.0157016 103.6512740  78.8595536  64.7221744 102.2874349  79.4474846
  59.8836235 102.8973672  84.1877141  59.7321741 102.6684224  83.2707225
  59.8740914 103.8544274  84.2008486  56.6521571 100.4705585  79.1723408
  57.5813631 100.6216745  78.9992375  56.2312601 100.5589606  78.3172054
  55.4509903 104.4956249  76.9421945  55.3120989 104.1275034  77.8147884
  54.6624499 105.0103889  76.7705903  56.0458055 109.5965346  68.2847482
  56.2209811 109.1253389  69.0993105  55.3590843 110.2231112  68.5128743
  57.0015118 103.8737852  74.3310783  56.6664951 103.8338622  75.2268433
  56.5019064 103.2082568  73.8581193  50.9759362  99.2805482  79.8563364
  50.8379160  98.5485721  80.4574903  51.8864286  99.1914382  79.5747552
  59.9374310 101.2193886  64.6047843  59.3203480 100.4940715  64.5080896
  59.4690798 101.9803247  64.2614917  53.6041663  98.9925441  79.3447044
  54.3141281  98.3518634  79.3033662  53.5610971  99.2438336  80.2673225
  61.5928441 105.9292795  82.2653623  61.5340988 105.2452015  81.5984206
  61.9947960 106.6711785  81.8134249  52.3170597  95.9790659  81.1642684
  51.7807954  95.5281398  81.8164280  51.7287305  96.1136568  80.4213148
  50.6119140 112.7454709  75.0587342  50.8515739 113.3773233  75.7366361
  49.7688337 112.3942749  75.3452701  51.7272856  95.4379311  63.7269147
  50.8502322  95.3168112  63.3631394  52.2030609  94.6465389  63.4748036
  61.5945849 103.8932379  80.4967603  60.7072628 103.5558301  80.6194002
  62.1644400 103.1615410  80.7336368  43.2474996 100.2256471  73.8210654
  43.9346036  99.9118201  73.2331670  43.0923125 101.1297835  73.5477906
  48.0509718  95.1146667  78.2495678  47.9667907  94.5072337  77.5146088
  47.2292424  95.6055685  78.2505174  55.1247002 108.5533831  77.4628846
  55.0517174 109.3588803  77.9748151  54.6824395 108.7525797  76.6376868
  54.9136782 107.7905601  70.9731668  54.1304304 108.3327281  71.0669892
  55.6129527 108.3079581  71.3725909  58.2233432  93.6000231  73.6165873
  58.7202131  92.8470193  73.2966943  57.4520413  93.6364547  73.0509082
  66.0763189  99.3040596  75.2584165  66.0653066 100.1865312  74.8878098
  65.2080569  98.9512147  75.0638702  57.5845686 108.4520665  79.6187005
  58.2973658 109.0868130  79.5462906  57.0935714 108.5484531  78.8027007
  59.3063213 102.3571918  71.1904296  58.3719491 102.4773380  71.0209001
  59.4839881 101.4544385  70.9264306  54.8068401  95.7417614  73.3437558
  54.4366188  95.1888654  74.0318463  55.3027493  95.1375747  72.7912558
  62.6935764  98.1989237  71.7254331  63.1596216  99.0317229  71.6514633
  63.1443264  97.7334219  72.4299589  52.6357599 106.2015109  80.4392576
  53.3367059 106.8351592  80.5921970  52.1652714 106.5429840  79.6788215
  60.7611995 104.5433058  68.7240483  61.0371839 104.4289653  69.6334357
  59.8916494 104.1450543  68.6852656  60.4358885  98.7559716  78.2645126
  59.7830335  99.0035624  77.6097579  60.8139265  97.9423854  77.9307603
  57.3966059 108.7919409  72.3673296  57.5788454 107.9741065  72.8301049
  58.2199045 109.0087101  71.9298186  57.7308225 107.7187594  69.6288345
  58.2595991 107.2080049  69.0158507  57.9936444 107.4030125  70.4933878
  48.2325317 105.7351464  77.3723678  48.8178754 104.9895152  77.5051583
  48.0350156 106.0455420  78.2560342  51.0863972 108.7702711  72.3886121
  50.4174348 109.2548839  71.9050161  50.9476842 109.0171931  73.3029499
  42.8242972  98.3057064  76.0928121  42.8627072  97.7720655  76.8865240
  42.3183265  97.7792269  75.4739099  55.2269241 110.8046455  78.9868779
  55.7787549 110.9678076  79.7517864  55.5675435 111.3950892  78.3148804
  49.6786007  95.2244737  83.2363698  50.3058046  94.8421814  83.8501222
  48.8213926  95.0058939  83.6019391  60.0780115 105.6307712  84.8417433
  60.6220019 106.2437670  84.3472388  59.4966960 106.1887290  85.3584446
  46.4551550  97.0321166  69.1682053  46.7504991  96.1231844  69.1149107
  45.5539585  97.0108905  68.8463055  58.3637628 108.7528430  75.9732461
  58.2388768 107.9518170  75.4643407  59.0216719 109.2474623  75.4846431
  49.9845797  95.1077163  75.1509601  49.2632382  95.7213130  75.0117075
  50.7739052  95.6434927  75.0726247  60.4272537 106.5537450  77.6012011
  59.4802872 106.4342801  77.5290338  60.7755310 105.6659948  77.6838273
  48.1839391  94.7135264  69.2921378  47.8552097  93.8332643  69.1096484
  48.5378762  94.6582932  70.1797767  57.4318970 106.3490166  73.8016364
  57.2843932 105.4206874  73.9823934  58.2572464 106.3710257  73.3173439
  51.2981214  95.0008233  69.6596856  51.6377287  95.5294155  68.9375464
  51.7453335  95.3388640  70.4355422  61.0353092 107.1718725  74.8881236
  61.9599639 106.9661586  74.7505687  60.8668395 106.9235126  75.7970578
  53.2849361  93.4982855  67.8590148  54.0057724  93.8764108  67.3553865
  52.6614666  94.2171732  67.9625126  57.4280484  94.2028004  68.7948481
  57.6444099  95.0852642  68.4937309  56.9474552  93.8114217  68.0654123
  52.1679706  97.1613717  75.3719225  52.0224286  97.4754020  76.2643507
  51.6904909  97.7798618  74.8190124  54.0276089  94.1516265  75.4200115
  54.0137657  93.2557359  75.0832413  54.7448517  94.1586929  76.0538401
  55.8802219  94.5853605  77.4653242  55.6219997  95.5070676  77.4637573
  55.3487260  94.1884040  78.1553706  60.8248408 107.6904393  70.2443328
  60.9985286 107.1250815  69.4917180  61.3177299 108.4905287  70.0622818
  46.6425368  99.7019062  78.3106887  46.0978836 100.4778870  78.4427161
  47.5204718 100.0489866  78.1526008  53.4312985  93.0330646  70.6887685
  53.5528896  92.1047292  70.8878573  53.1415027  93.0469331  69.7766000
  56.3004175  90.7185556  73.8254405  56.3225872  90.7824889  72.8706384
  56.7172234  89.8790065  74.0194911  66.6787799 100.4540816  71.8633627
  67.1218945  99.7048141  71.4652751  65.8014310 100.4450952  71.4807359
  61.8123581 107.0071157  67.3440226  62.5074485 107.6277850  67.5627541
  62.1546731 106.1566508  67.6192604  47.4291390  98.8288958  81.2037043
  46.6873126  98.9771593  81.7901674  47.1084134  99.0897224  80.3403793
  63.7115004 104.4570863  68.8727557  64.2366328 104.7958135  68.1476877
  63.6237356 103.5217878  68.6890691  55.3735052 108.3704936  81.0017433
  55.6822179 108.1254083  81.8740133  56.1710534 108.5751575  80.5136304
  55.3955664 110.5242846  73.2322810  54.9560655 110.0319224  73.9255667
  56.1463781 109.9815813  72.9914885  47.8748003 106.7154387  73.2347438
  48.7006023 106.4158159  72.8546082  47.5242055 105.9462009  73.6837227
  52.8429537 106.0680855  75.3045112  52.2209546 105.4051560  75.0047340
  53.5134404 106.0941987  74.6218759  46.0756608 104.6340713  74.1936372
  45.2388517 104.2062887  74.0120373  46.0480254 104.8273156  75.1307163
  63.4008910 105.0903766  84.1778755  62.6104453 105.0727905  83.6383254
  63.1642264 105.6292060  84.9327791  63.5206785 101.9396233  81.4911483
  63.5704790 101.7746240  82.4327006  63.4120708 101.0723492  81.1009364
  52.4043044 104.6184778  68.7803572  52.5531164 105.3020243  68.1270245
  53.2109487 104.5989868  69.2953028  60.8110547  97.9227161  82.8070790
  61.7120410  97.7833625  82.5154788  60.8858522  98.0881615  83.7468967
  65.0224982 104.3593174  81.7353505  64.7309790 104.7223155  82.5716966
  64.4097113 103.6460182  81.5566837  66.2220664 101.9246054  74.2556075
  67.0567555 102.3635858  74.4193635  66.3579793 101.4484707  73.4364321
  63.2712170  99.4825789  80.2033563  63.7466291  99.6753435  79.3952414
  62.3477735  99.5384974  79.9576946  50.1595676 100.6449956  69.7864641
  49.9141718  99.7412286  69.9844851  50.3291591 100.6467106  68.8444119
  49.4291324  96.3778313  67.2850803  48.7360569  96.4522668  66.6290839
  49.1843076  95.6138657  67.8072319  55.9038449 107.1132909  66.2515320
  55.3312416 107.7323096  65.7985791  56.4771243 107.6632270  66.7855242
  61.9713839  96.3591549  78.4361868  62.9231262  96.4589646  78.4574092
  61.8017289  95.5669817  78.9459953  59.1235709 107.3970059  67.3823902
  60.0566382 107.3315620  67.5856777  59.0358922 108.2326326  66.9238435
  61.7523725 106.7135929  64.3427849  61.6737357 106.3795793  65.2363607
  62.5733392 107.2057697  64.3419322  64.4501917  99.5797668  77.5504168
  64.4178237  98.6413669  77.7363852  65.0602540  99.6581705  76.8169993
  56.2885248  98.4493721  63.5931372  57.2344352  98.3199930  63.6619790
  55.9099492  97.7108383  64.0700800  64.5996405  96.3708712  77.5962451
  64.0835454  95.5867169  77.4092380  65.4836354  96.0427428  77.7608971
  62.2607132  90.1149727  73.5558264  62.0631953  89.8064816  74.4401596
  62.8706838  90.8411366  73.6856194  70.2678467 100.6413675  76.6910205
  70.9981855 100.3798963  77.2517908  69.6585412  99.9042397  76.7312273
  68.3493764  98.7821538  77.2884656  67.6226927  98.6477503  76.6801148
  67.9341051  99.0898366  78.0941374  56.1723940 102.5011468  85.0532029
  57.0926950 102.6790067  85.2472076  56.1373523 101.5567513  84.9011728
  54.4728165  96.3743698  63.5286257  53.5659620  96.0776811  63.6048971
  54.7504146  96.0773516  62.6620544  45.3906105  97.6950061  73.9785304
  45.0708889  96.8415369  73.6859678  44.8439533  97.9098639  74.7343271
  49.1686013 100.4112502  77.6954810  49.3872022 101.3429610  77.7142844
  49.5811786 100.0520477  78.4809614  56.0890230  90.9180588  69.6830499
  55.2790959  90.5727672  70.0585745  56.7774647  90.6088131  70.2718110
  58.0180779  89.9958634  71.3054795  58.5711817  90.4154088  71.9644818
  58.2550865  89.0694382  71.3477751  53.2426949  93.2330633  63.6698237
  54.1046113  93.5585531  63.9294054  53.4277293  92.4462129  63.1571302
  45.2594365 101.3152973  75.9478425  44.5657837 100.9006926  75.4348380
  46.0067356 101.3573509  75.3511844  61.3959586  92.1059159  70.8133460
  60.8158255  92.7643964  70.4311512  61.1295518  91.2836504  70.4020877
  59.8463152  91.5064217  73.0154780  60.3462931  91.6180752  72.2069099
  60.4898760  91.2025270  73.6555588  47.1731108 101.2471226  73.8244440
  47.1501796 101.3458914  72.8726323  47.4831744 102.0936377  74.1461606
  49.8318485 103.3047382  77.9391055  50.7861739 103.2731324  77.8720986
  49.6331009 102.8438005  78.7541281  50.4217868 101.8748498  80.5061852
  51.2410757 102.3692576  80.5296690  50.6954675 100.9580466  80.4779420
  60.1784464  94.2659250  69.8689808  59.2910319  94.5508900  69.6510003
  60.5938453  94.1053013  69.0217085  63.5299000  94.2905771  73.5844147
  64.3059390  94.7802223  73.8568764  62.8047134  94.7163825  74.0416017
  65.9671559  95.0033390  74.6418088  66.5616049  94.7629126  73.9311396
  66.0398142  94.2840521  75.2691624  48.1868714 108.8467001  74.9561252
  48.0523182 108.0867402  74.3899251  47.7700777 109.5707901  74.4890041
  59.3227677 104.0303925  63.9637828  60.0263527 104.2353927  64.5795483
  58.5990326 104.5980686  64.2286911  60.1525488  99.7813786  70.0840098
  60.0960689 100.2382337  69.2447730  60.7053830  99.0204470  69.9062941
  63.9630293  95.5703518  70.9090217  63.7067228  95.1700153  71.7398425
  63.3383162  96.2847312  70.7840357  68.2742631  98.3099591  73.4161509
  67.7142189  98.3792780  74.1893071  67.6686135  98.1340576  72.6961005
  51.3437840 109.7436318  75.1679695  51.2270224 110.6881751  75.0658385
  50.5230286 109.4409880  75.5565494  61.2314375 104.4686454  66.0136288
  62.0659979 104.0367652  65.8313763  61.0698718 104.2968467  66.9413182
  60.8860267 100.9718567  67.3792627  60.8309071 100.8062838  66.4381071
  60.2606322 101.6794600  67.5354817  45.6752782  96.2086631  81.2054049
  46.3211645  95.6985585  81.6941275  45.4669933  96.9455313  81.7797475
  58.2006174 103.2767479  86.7046190  59.0697334 103.4508131  86.3432825
  57.7212926 104.0961896  86.5821919  54.1956392  90.4726676  66.9577946
  54.1835062  91.4168516  67.1146216  55.0879814  90.2896821  66.6637407
  52.3692354 110.3964580  78.3835624  53.2719601 110.4288190  78.7002119
  52.1429724 109.4665031  78.3981959  54.1245956 109.1495566  75.0445702
  53.1741587 109.1497428  74.9310074  54.4278442 108.4028301  74.5281737
  58.0108512  87.0669453  71.2123882  57.2440908  86.5127939  71.3580565
  58.4219217  87.1391321  72.0738034  50.0150273  93.3554248  85.3029064
  50.8781734  92.9991053  85.5132388  49.4415684  93.0168143  85.9904468
  69.8598650 114.9856105  76.1091465  70.4977060 114.8662852  75.4054805
  69.7419493 115.9336949  76.1679417  66.6688356 114.9383533  76.0452989
  66.3306868 114.8224598  75.1573524  67.5378124 114.5374698  76.0253995
  62.5275172 116.7919009  72.0349880  61.9640037 116.7008946  71.2666168
  62.4127567 115.9718914  72.5152373  67.1508139 116.0918385  82.0039195
  67.1396780 115.6971183  81.1319698  67.3128779 115.3584457  82.5972966
  60.0739604 118.2870201  74.8734101  60.8660896 117.9461026  74.4580400
  60.3136254 118.3965176  75.7936254  68.1074730 120.4589977  67.3464345
  67.4562710 121.0444057  66.9598359  68.9019093 120.9896172  67.4059383
  62.0330358 117.5479114  67.7451479  62.8061234 117.0008101  67.6064355
  62.3855756 118.4123364  67.9565941  63.8715400 118.8755496  80.9518379
  63.5805266 119.7801127  80.8365045  64.5072385 118.9172024  81.6662448
  64.7971607 116.2532345  77.5419738  65.3935179 116.0288367  76.8276701
  64.8546579 115.5117090  78.1445186  64.3696635 113.7071780  65.3769929
  64.6222156 113.1853302  64.6153392  63.4321195 113.5437926  65.4796613
  69.4139918 112.7107559  73.1844673  70.2003007 112.2926982  72.8335090
  69.6778623 113.6153651  73.3526321  69.5849996 118.1480409  67.8833329
  68.9495829 118.2215036  68.5954234  69.2547402 118.7374008  67.2052409
  74.8148345 112.6482792  74.0877651  75.5473517 112.0782009  74.3215481
  74.0587701 112.2604392  74.5284157  64.0892924 115.6099886  67.5794304
  63.9729182 114.9344790  68.2475389  64.1995184 115.1232260  66.7626457
  66.4324465 115.0710033  71.2840994  66.0682672 114.5440654  71.9953915
  67.2891581 114.6808502  71.1107479  72.3373766 106.3604366  78.5472260
  72.0057091 107.2299777  78.3233475  71.7419379 106.0440650  79.2266290
  66.0729952 110.0999933  66.2802342  66.2404354 110.9680170  66.6472813
  65.8827121 110.2627215  65.3563631  68.8305285 118.5616912  77.9468172
  68.5306008 119.4641951  77.8383980  68.4856345 118.2949095  78.7989325
  62.2817767 115.0130709  73.9804877  61.3568263 114.8806923  74.1882569
  62.5302180 115.7924928  74.4774819  72.2302429 111.0799452  75.6265610
  71.3219306 111.0114861  75.3324371  72.1790025 111.5571397  76.4547435
  66.0519173 112.5557591  67.2649009  65.9318798 113.0014641  68.1034489
  65.3571761 112.9042908  66.7062547  59.6426578 114.6563982  74.8148666
  59.7718959 114.9098461  75.7288078  58.9624029 115.2491690  74.4953321
  63.8126065 125.3261232  70.9139140  63.7350095 126.2769057  70.9927621
  63.2087709 124.9807105  71.5714066  66.3043295 112.4989098  83.5700507
  65.5276629 113.0583018  83.5603372  66.9433858 112.9845881  84.0915377
  74.0964075 109.2815891  77.4043484  73.4538456 109.5748424  76.7583278
  73.5919004 109.1668811  78.2096680  71.7504239 113.0279064  68.0929343
  72.6622095 113.2606451  67.9177041  71.2413886 113.6116108  67.5304422
  64.5589667 115.3074551  83.1318474  65.3004352 115.8459595  82.8553298
  63.8526653 115.9340840  83.2890026  70.0345007 117.4503692  81.7290636
  70.4428363 117.0086102  80.9845268  69.3122268 116.8756319  81.9824828
  66.3876077 112.3876298  79.1024192  67.2337272 112.8115712  79.2458841
  66.3274715 111.7309923  79.7962756  70.3573821 118.0104882  75.4842924
  69.7282684 118.1750596  74.7818992  69.9699484 118.4246492  76.2553888
  74.2363053 118.9459320  72.8387288  73.5514091 119.3258221  72.2884321
  74.3206903 119.5554647  73.5719236  69.5375522 110.0480667  80.7605366
  69.2936454 110.8022727  80.2239642  69.8135453 110.4266014  81.5952613
  71.4913985 116.5919279  79.4382632  71.7030880 117.2351039  78.7617013
  71.4443733 115.7581596  78.9704562  69.0940214 109.2037100  76.3419204
  68.2324693 109.5018353  76.6335941  69.1202649 109.4207499  75.4100236
  65.9101783 117.7479290  72.7493010  66.3740129 118.0266993  71.9597632
  65.6458581 116.8462735  72.5666100  62.8025864 117.2950772  75.6872773
  63.3727221 117.7238040  75.0490257  63.3933976 117.0133357  76.3856958
  64.8470669 113.8702443  69.5582575  65.5494713 114.3223486  70.0256501
  64.5151298 113.2286262  70.1862468  63.2951031 112.4614199  83.9333784
  62.6649691 113.1430480  84.1669181  63.1887119 112.3497281  82.9886922
  58.5896003 112.1285995  74.8599708  57.7995057 112.3843524  74.3839819
  59.0807251 112.9434333  74.9651749  72.6059813 119.4691235  77.6104989
  73.4277257 119.0671422  77.3287671  72.6022216 119.3659469  78.5621105
  60.5410749 112.4930575  71.8183185  59.7441912 112.6049269  72.3366681
  60.3136341 112.8317227  70.9524075  66.3716416 119.0175278  79.7665700
  66.4360849 119.4795685  80.6023871  65.6627340 118.3872643  79.8948009
  56.8733706 112.3816486  77.2914699  57.1241745 113.2663496  77.5572275
  57.4093255 112.2021087  76.5189791  80.6965806 115.8129983  73.9589961
  79.9429514 115.2437381  73.8033965  80.8313347 115.7792648  74.9060595
  66.0864434 120.6843385  69.6344680  65.9510109 121.5294921  70.0629528
  66.6274246 120.8862663  68.8710614  62.5731774 106.7634965  86.2959035
  62.1798719 106.2101164  86.9706679  63.3897914 107.0745544  86.6865553
  59.5393831 118.2018823  70.2072605  60.0518352 118.9962074  70.3578170
  60.1916544 117.5045114  70.1406206  61.3488716 121.3184580  72.2895358
  61.5255344 122.2402544  72.1016342  62.1445550 121.0042999  72.7189738
  65.4899735 108.1792844  83.8879292  66.2309448 108.7799997  83.8083754
  65.7217657 107.4370482  83.3297334  60.6341073 113.3649212  82.1657521
  60.5194588 112.4634469  82.4664620  59.7785590 113.6112908  81.8142338
  67.7132910 121.3066952  83.7645022  67.2696765 120.5203330  83.4465926
  68.3750124 121.4946102  83.0988913  62.4720032 122.8362753  78.2905700
  63.0227457 122.7079817  77.5182694  61.6331507 123.1357642  77.9400593
  69.8114148 121.5869752  81.7926423  69.7932624 122.4078633  81.3006692
  70.7334068 121.4623827  82.0176564  66.2687203 119.1013881  82.6349932
  66.8015539 118.3402169  82.4049240  65.7401284 118.8087533  83.3774086
  69.4356898 104.2073947  78.1643573  69.0921167 105.0975589  78.0882684
  69.8035860 104.0175605  77.3013158  57.5042748 116.5307478  70.9832175
  58.3417970 116.9404486  70.7665883  57.6821016 115.5906920  70.9532369
  69.4007180 114.1982558  66.6716008  68.8853804 114.9687163  66.9104396
  69.1284489 113.5247694  67.2949070  66.9854291 109.0432259  71.7301247
  66.1295888 108.6539109  71.5506886  67.3981243 109.1224220  70.8701032
  68.5153438 106.5778602  76.1292807  68.0118234 106.5408738  75.3160612
  68.8084045 107.4871345  76.1889463  64.7596324 106.6617332  75.1358988
  65.6249321 106.4660141  74.7764878  64.8273833 106.4327684  76.0628345
  74.3741454 116.9514913  68.6069182  73.5970897 116.6126072  68.1624344
  75.0532935 116.9567536  67.9324147  69.1893483 112.0709650  68.4975790
  68.8843619 112.3855800  69.3485933  70.1423926 112.1491070  68.5403123
  67.6339915 118.2299874  70.1468744  67.1061277 117.4952633  69.8341981
  67.1327418 119.0074550  69.9008712  72.6132761 116.4248894  75.2635790
  71.9556436 117.1148156  75.3515919  73.4173161 116.8145326  75.6069776
  62.3658643 108.8919540  72.5075355  62.9402395 108.6694721  71.7748548
  62.9529625 108.9608234  73.2603956  71.4238220 114.7793267  73.3139732
  71.9370102 115.4123259  73.8161441  72.0739444 114.1794462  72.9483092
  62.6928230 110.9224001  66.5271240  61.8565542 111.2598688  66.8480515
  62.5533000 110.7872981  65.5898377  64.6681311 105.7660789  71.2350425
  64.0145723 105.4509806  70.6107039  64.6261785 105.1436529  71.9610247
  65.7792515 116.0480084  63.1503717  64.8719577 115.8169337  63.3494866
  66.2763547 115.2517703  63.3377698  68.6860594 124.7577591  66.0700403
  68.0122293 125.0609288  66.6785361  69.0726416 125.5606672  65.7205860
  67.9019051 112.2542722  75.5598072  66.9841612 112.4757669  75.4019760
  68.3179195 112.3289033  74.7009780  68.6854099 113.6534138  70.6900752
  69.4325918 114.1655535  70.3807874  68.9545688 113.3318191  71.5505146
  66.9580749 116.1492679  67.6727707  66.0491968 115.8651712  67.7700176
  66.9875833 116.5691757  66.8131014  72.1900016 119.7599268  71.4418874
  71.7362343 118.9190178  71.4984065  71.5593983 120.3960667  71.7793654
  71.1332936 110.6891254  72.6719542  70.3955693 110.1768641  73.0029784
  71.3859709 110.2491636  71.8602819  70.6332956 121.5975765  72.3768692
  70.9255930 122.1580822  71.6581058  71.1431576 121.8904326  73.1321852
  71.2344563 103.4667506  73.2661311  71.5403440 102.6064870  72.9787226
  71.9597168 104.0585127  73.0660305  57.5268919 113.8698193  71.6542909
  57.3293319 113.2767554  70.9293976  56.9715583 113.5650403  72.3718848
  65.5065643 113.7621299  73.7737502  65.5614253 112.8095136  73.6979979
  64.6956845 113.9180739  74.2578801  66.6556837 117.6901423  65.0115785
  66.2176267 116.9737281  64.5521423  67.3967278 117.9177537  64.4500877
  63.4458003 112.3798359  71.5327881  62.6325868 112.6792530  71.9393073
  63.9416997 111.9854048  72.2502363  65.5966581 122.3756116  73.4662146
  65.5542760 122.6016962  72.5370678  66.5129280 122.1419491  73.6147947
  69.0432215 112.8440184  80.3642775  69.3981602 113.0711657  81.2237241
  69.6904346 113.1758560  79.7420030  74.7729951 115.9658620  71.0692104
  74.6347850 116.1560216  70.1413293  74.4166170 116.7278002  71.5260155
  62.9372078 109.9516715  77.1489116  63.5771457 109.8105474  76.4512079
  62.1049608 109.6651228  76.7727718  74.7999331 118.0335147  76.0803375
  75.2335838 117.9410436  76.9286429  75.5130912 118.0092647  75.4423391
  63.7132382 119.2519145  73.2624108  64.5072980 118.7569465  73.0606683
  63.0024074 118.7237008  72.8991814  68.5327226 121.6337241  77.6136476
  68.5864248 122.2028177  78.3814192  67.6642007 121.8039126  77.2490513
  60.0215145 113.3962227  69.3383861  59.0912733 113.3346682  69.5553823
  60.1172617 112.8738180  68.5420502  59.9400694 109.9217040  71.9262103
  60.2007511 110.8362373  71.8171263  60.7617866 109.4541482  72.0758716
  61.4125619 111.3354797  79.0960927  62.0848673 111.1272159  78.4473576
  60.5855406 111.1376883  78.6566160  75.6614881 118.0758847  78.6136261
  75.8550771 118.9804658  78.8595536  75.5615499 117.6166266  79.4474846
  67.3151191 107.9616738  81.1126588  66.6679106 108.6606687  81.0191065
  68.0852207 108.3952882  81.4802836  70.7229989 118.2265590  84.1877141
  70.5715496 117.9976142  83.2707225  70.7134669 119.1836191  84.2008486
  67.4915326 115.7997503  79.1723408  68.4207386 115.9508662  78.9992375
  67.0706356 115.8881523  78.3172054  66.2903658 119.8248167  76.9421945
  66.1514743 119.4566952  77.8147884  65.5018254 120.3395807  76.7705903
  66.8851810 124.9257264  68.2847482  67.0603565 124.4545307  69.0993105
  66.1984598 125.5523030  68.5128743  67.8408873 119.2029770  74.3310783
  67.5058705 119.1630540  75.2268433  67.3412818 118.5374486  73.8581193
  61.8153117 114.6097400  79.8563364  61.6772915 113.8777639  80.4574903
  62.7258040 114.5206300  79.5747552  70.7768064 116.5485804  64.6047843
  70.1597235 115.8232632  64.5080896  70.3084553 117.3095164  64.2614917
  64.4435417 114.3217359  79.3447044  65.1535036 113.6810551  79.3033662
  64.4004725 114.5730254  80.2673225  72.4322196 121.2584713  82.2653623
  72.3734742 120.5743933  81.5984206  72.8341714 122.0003703  81.8134249
  63.1564351 111.3082577  81.1642684  62.6201708 110.8573316  81.8164280
  62.5681060 111.4428486  80.4213148  62.5666610 110.7671228  63.7269147
  61.6896077 110.6460029  63.3631394  63.0424363 109.9757307  63.4748036
  72.4339603 119.2224296  80.4967603  71.5466382 118.8850218  80.6194002
  73.0038154 118.4907328  80.7336368  54.0868750 115.5548388  73.8210654
  54.7739790 115.2410118  73.2331670  53.9316879 116.4589753  73.5477906
  58.8903473 110.4438585  78.2495678  58.8061661 109.8364254  77.5146088
  58.0686179 110.9347603  78.2505174  65.9640757 123.8825749  77.4628846
  65.8910928 124.6880720  77.9748151  65.5218150 124.0817715  76.6376868
  65.7530536 123.1197519  70.9731668  64.9698058 123.6619199  71.0669892
  66.4523281 123.6371498  71.3725909  69.0627186 108.9292148  73.6165873
  69.5595886 108.1762111  73.2966943  68.2914168 108.9656465  73.0509082
  76.9156944 114.6332514  75.2584165  76.9046820 115.5157229  74.8878098
  76.0474323 114.2804065  75.0638702  68.4239440 123.7812583  79.6187005
  69.1367412 124.4160048  79.5462906  67.9329469 123.8776449  78.8027007
  70.1456967 117.6863836  71.1904296  69.2113246 117.8065298  71.0209001
  70.3233636 116.7836302  70.9264306  65.6462155 111.0709531  73.3437558
  65.2759943 110.5180572  74.0318463  66.1421248 110.4667665  72.7912558
  73.5329518 113.5281155  71.7254331  73.9989971 114.3609146  71.6514633
  73.9837019 113.0626136  72.4299589  63.4751354 121.5307026  80.4392576
  64.1760813 122.1643509  80.5921970  63.0046469 121.8721758  79.6788215
  71.6005750 119.8724976  68.7240483  71.8765593 119.7581571  69.6334357
  70.7310248 119.4742461  68.6852656  71.5046181 105.8961742  75.7645232
  70.5909261 106.1265969  75.9327439  71.9339283 105.9800186  76.6159264
  71.2752640 114.0851634  78.2645126  70.6224090 114.3327541  77.6097579
  71.6533020 113.2715772  77.9307603  68.2359814 124.1211327  72.3673296
  68.4182208 123.3032983  72.8301049  69.0592800 124.3379019  71.9298186
  68.5701979 123.0479512  69.6288345  69.0989745 122.5371967  69.0158507
  68.8330199 122.7322042  70.4933878  67.3240213 114.8271445  84.7511163
  66.6480850 114.7265574  85.4213538  68.1467847 114.6710659  85.2147160
  59.0719072 121.0643381  77.3723678  59.6572509 120.3187069  77.5051583
  58.8743910 121.3747338  78.2560342  61.9257727 124.0994629  72.3886121
  61.2568102 124.5840756  71.9050161  61.7870597 124.3463849  73.3029499
  53.6636727 113.6348982  76.0928121  53.7020826 113.1012572  76.8865240
  53.1577019 113.1084187  75.4739099  66.0662996 126.1338372  78.9868779
  66.6181304 126.2969994  79.7517864  66.4069189 126.7242810  78.3148804
  61.0427489 108.4813522  79.5890664  61.1068815 109.3428353  79.1768061
  60.9794609 107.8687524  78.8563022  60.5179761 110.5536655  83.2363698
  61.1451800 110.1713732  83.8501222  59.6607680 110.3350857  83.6019391
  70.9173870 120.9599630  84.8417433  71.4613774 121.5729588  84.3472388
  70.3360715 121.5179208  85.3584446  57.2945304 112.3613084  69.1682053
  57.5898745 111.4523762  69.1149107  56.3933340 112.3400823  68.8463055
  69.2031383 124.0820348  75.9732461  69.0782522 123.2810088  75.4643407
  69.8610474 124.5766541  75.4846431  60.8239551 110.4369080  75.1509601
  60.1026137 111.0505048  75.0117075  61.6132807 110.9726845  75.0726247
  71.2666291 121.8829368  77.6012011  70.3196627 121.7634719  77.5290338
  71.6149064 120.9951866  77.6838273  63.6265865 107.7723507  81.4250253
  64.1500266 108.0185803  82.1876563  63.4078198 108.6043542  81.0053391
  59.0233146 110.0427181  69.2921378  58.6945852 109.1624560  69.1096484
  59.3772516 109.9874850  70.1797767  68.2712725 121.6782084  73.8016364
  68.1237687 120.7498791  73.9823934  69.0966218 121.7002175  73.3173439
  62.1374969 110.3300151  69.6596856  62.4771041 110.8586072  68.9375464
  62.5847089 110.6680557  70.4355422  71.8746846 122.5010643  74.8881236
  72.7993394 122.2953504  74.7505687  71.7062150 122.2527044  75.7970578
  64.8318410 108.7137202  79.1099924  64.4915230 107.9145015  79.5120604
  64.1257416 109.0138913  78.5376757  65.4834881 105.7986514  77.5627247
  66.3060951 105.3246992  77.4406137  65.7272945 106.5776998  78.0625933
  64.1243116 108.8274773  67.8590148  64.8451478 109.2056026  67.3553865
  63.5008420 109.5463650  67.9625126  68.2674239 109.5319922  68.7948481
  68.4837853 110.4144560  68.4937309  67.7868306 109.1406135  68.0654123
  63.0073460 112.4905635  75.3719225  62.8618041 112.8045938  76.2643507
  62.5298664 113.1090535  74.8190124  64.8669843 109.4808183  75.4200115
  64.8531412 108.5849276  75.0832413  65.5842271 109.4878847  76.0538401
  66.7195974 109.9145523  77.4653242  66.4613752 110.8362594  77.4637573
  66.1881014 109.5175958  78.1553706  71.6642163 123.0196310  70.2443328
  71.8379040 122.4542733  69.4917180  72.1571054 123.8197205  70.0622818
  57.4819122 115.0310979  78.3106887  56.9372590 115.8070787  78.4427161
  58.3598472 115.3781784  78.1526008  64.2706739 108.3622563  70.6887685
  64.3922650 107.4339209  70.8878573  63.9808781 108.3761249  69.7766000
  67.1397929 106.0477474  73.8254405  67.1619626 106.1116807  72.8706384
  67.5565988 105.2081982  74.0194911  77.5181554 115.7832733  71.8633627
  77.9612700 115.0340058  71.4652751  76.6408064 115.7742870  71.4807359
  72.6517335 122.3363075  67.3440226  73.3468240 122.9569767  67.5627541
  72.9940485 121.4858426  67.6192604  58.2685144 114.1580876  81.2037043
  57.5266880 114.3063511  81.7901674  57.9477889 114.4189141  80.3403793
  74.5508758 119.7862780  68.8727557  75.0760082 120.1250053  68.1476877
  74.4631111 118.8509796  68.6890691  66.2128807 123.6996854  81.0017433
  66.5215933 123.4546001  81.8740133  67.0104289 123.9043492  80.5136304
  66.2349419 125.8534763  73.2322810  65.7954409 125.3611142  73.9255667
  66.9857536 125.3107731  72.9914885  58.7141758 122.0446304  73.2347438
  59.5399778 121.7450076  72.8546082  58.3635810 121.2753927  73.6837227
  63.6823291 121.3972773  75.3045112  63.0603300 120.7343478  75.0047340
  64.3528158 121.4233904  74.6218759  56.9150363 119.9632631  74.1936372
  56.0782271 119.5354805  74.0120373  56.8874008 120.1565074  75.1307163
  63.7547819 109.8754561  84.8977618  63.8035974 110.7516683  84.5155387
  64.2970333 109.3331954  84.3249261  74.2402664 120.4195684  84.1778755
  73.4498208 120.4019823  83.6383254  74.0036019 120.9583978  84.9327791
  74.3600539 117.2688150  81.4911483  74.4098544 117.1038158  82.4327006
  74.2514463 116.4015409  81.1009364  63.2436798 119.9476696  68.7803572
  63.3924918 120.6312160  68.1270245  64.0503241 119.9281786  69.2953028
  71.6504302 113.2519078  82.8070790  72.5514164 113.1125543  82.5154788
  71.7252276 113.4173533  83.7468967  65.9847107 110.6285933  81.6523976
  65.1150416 110.9219499  81.3806565  66.2206587 111.2126378  82.3731240
  75.8618736 119.6885092  81.7353505  75.5703544 120.0515072  82.5716966
  75.2490867 118.9752100  81.5566837  77.0614418 117.2537972  74.2556075
  77.8961310 117.6927776  74.4193635  77.1973547 116.7776625  73.4364321
  74.1105924 114.8117706  80.2033563  74.5860046 115.0045353  79.3952414
  73.1871490 114.8676892  79.9576946  60.9989431 115.9741874  69.7864641
  60.7535473 115.0704204  69.9844851  61.1685346 115.9759024  68.8444119
  68.6886141 106.8465550  79.1689397  69.2068085 107.5826577  78.8435885
  68.3341274 107.1529543  80.0036156  60.2685079 111.7070231  67.2850803
  59.5754323 111.7814586  66.6290839  60.0236830 110.9430575  67.8072319
  68.9398735 103.2665832  74.6890293  69.2200489 102.5989022  75.3150720
  69.7249342 103.4594928  74.1764957  66.7432204 122.4424826  66.2515320
  66.1706171 123.0615013  65.7985791  67.3164997 122.9924188  66.7855242
  72.8107593 111.6883466  78.4361868  73.7625016 111.7881564  78.4574092
  72.6411044 110.8961735  78.9459953  70.8321973 108.7739050  78.6221269
  70.2371905 109.0544062  77.9267758  70.5471670 109.2632951  79.3938010
  69.9629463 122.7261976  67.3823902  70.8960136 122.6607538  67.5856777
  69.8752676 123.5618243  66.9238435  72.5917480 122.0427847  64.3427849
  72.5131112 121.7087710  65.2363607  73.4127147 122.5349615  64.3419322
  75.2895671 114.9089586  77.5504168  75.2571991 113.9705587  77.7363852
  75.8996295 114.9873623  76.8169993  67.1279002 113.7785639  63.5931372
  68.0738107 113.6491847  63.6619790  66.7493247 113.0400301  64.0700800
  75.4390160 111.7000630  77.5962451  74.9229208 110.9159086  77.4092380
  76.3230108 111.3719346  77.7608971  73.1000887 105.4441645  73.5558264
  72.9025708 105.1356733  74.4401596  73.7100592 106.1703284  73.6856194
  81.1072221 115.9705593  76.6910205  81.8375609 115.7090881  77.2517908
  80.4979166 115.2334315  76.7312273  79.1887518 114.1113456  77.2884656
  78.4620682 113.9769420  76.6801148  78.7734805 114.4190284  78.0941374
  67.0117695 117.8303385  85.0532029  67.9320704 118.0081984  85.2472076
  66.9767278 116.8859431  84.9011728  65.3121919 111.7035615  63.5286257
  64.4053375 111.4068728  63.6048971  65.5897900 111.4065434  62.6620544
  56.2299860 113.0241979  73.9785304  55.9102644 112.1707287  73.6859678
  55.6833288 113.2390557  74.7343271  60.0079767 115.7404420  77.6954810
  60.2265777 116.6721528  77.7142844  60.4205541 115.3812394  78.4809614
  66.9283985 106.2472505  69.6830499  66.1184713 105.9019590  70.0585745
  67.6168402 105.9380049  70.2718110  68.8574533 105.3250552  71.3054795
  69.4105572 105.7446005  71.9644818  69.0944620 104.3986300  71.3477751
  64.8807632 111.3137626  87.0857559  64.7804359 112.2631983  87.0169650
  64.6629174 110.9855865  86.2133629  64.0820704 108.5622551  63.6698237
  64.9439868 108.8877449  63.9294054  64.2671048 107.7754047  63.1571302
  56.0988120 116.6444890  75.9478425  55.4051591 116.2298843  75.4348380
  56.8461111 116.6865427  75.3511844  72.2353340 107.4351077  70.8133460
  71.6552009 108.0935881  70.4311512  71.9689273 106.6128422  70.4020877
  70.6856907 106.8356135  73.0154780  71.1856685 106.9472669  72.2069099
  71.3292515 106.5317188  73.6555588  64.7438902 114.7434764  85.9022621
  64.2605984 115.5435125  86.1086510  64.8299842 114.7542709  84.9490065
  58.0124862 116.5763144  73.8244440  57.9895550 116.6750831  72.8726323
  58.3225499 117.4228295  74.1461606  60.6712240 118.6339299  77.9391055
  61.6255494 118.6023242  77.8720986  60.4724764 118.1729923  78.7541281
  61.2611622 117.2040415  80.5061852  62.0804511 117.6984494  80.5296690
  61.5348430 116.2872383  80.4779420  71.0178218 109.5951168  69.8689808
  70.1304073 109.8800818  69.6510003  71.4332207 109.4344931  69.0217085
  74.3692754 109.6197689  73.5844147  75.1453145 110.1094141  73.8568764
  73.6440889 110.0455743  74.0416017  76.8065313 110.3325308  74.6418088
  77.4009804 110.0921044  73.9311396  76.8791897 109.6132438  75.2691624
  59.0262469 124.1758919  74.9561252  58.8916937 123.4159320  74.3899251
  58.6094531 124.8999819  74.4890041  70.1621432 119.3595842  63.9637828
  70.8657282 119.5645845  64.5795483  69.4384081 119.9272604  64.2286911
  70.9919242 115.1105703  70.0840098  70.9354443 115.5674255  69.2447730
  71.5447585 114.3496388  69.9062941  74.8024048 110.8995435  70.9090217
  74.5460982 110.4992071  71.7398425  74.1776916 111.6139229  70.7840357
  79.1136386 113.6391509  73.4161509  78.5535944 113.7084698  74.1893071
  78.5079889 113.4632493  72.6961005  62.1831595 125.0728236  75.1679695
  62.0663979 126.0173668  75.0658385  61.3624041 124.7701797  75.5565494
  72.0708129 119.7978371  66.0136288  72.9053733 119.3659570  65.8313763
  71.9092472 119.6260385  66.9413182  71.7254021 116.3010485  67.3792627
  71.6702825 116.1354756  66.4381071  71.1000077 117.0086518  67.5354817
  56.5146536 111.5378549  81.2054049  57.1605400 111.0277503  81.6941275
  56.3063687 112.2747231  81.7797475  69.0399929 118.6059397  86.7046190
  69.9091088 118.7800049  86.3432825  68.5606680 119.4253813  86.5821919
  65.0350147 105.8018594  66.9577946  65.0228817 106.7460434  67.1146216
  65.9273569 105.6188739  66.6637407  63.2086109 125.7256498  78.3835624
  64.1113355 125.7580108  78.7002119  62.9823479 124.7956949  78.3981959
  64.9639711 124.4787484  75.0445702  64.0135342 124.4789346  74.9310074
  65.2672197 123.7320219  74.5281737  68.8502266 102.3961370  71.2123882
  68.0834662 101.8419857  71.3580565  69.2612971 102.4683239  72.0738034
  60.8544027 108.6846166  85.3029064  61.7175489 108.3282971  85.5132388
  60.2809438 108.3460061  85.9904468  80.6992404 130.3148023  76.1091465
  81.3370814 130.1954770  75.4054805  80.5813247 131.2628866  76.1679417
  77.5082111 130.2675451  76.0452989  77.1700622 130.1516515  75.1573524
  78.3771879 129.8666616  76.0253995  77.9901894 131.4210302  82.0039195
  77.9790534 131.0263101  81.1319698  78.1522533 130.6876375  82.5972966
  75.2090390 129.0363698  65.3769929  75.4615911 128.5145219  64.6153392
  74.2714949 128.8729843  65.4796613  80.2533673 128.0399476  73.1844673
  81.0396762 127.6218900  72.8335090  80.5172377 128.9445569  73.3526321
  85.6542100 127.9774710  74.0877651  86.3867272 127.4073926  74.3215481
  84.8981456 127.5896310  74.5284157  77.2718220 130.4001951  71.2840994
  76.9076427 129.8732572  71.9953915  78.1285336 130.0100420  71.1107479
  83.1767520 121.6896284  78.5472260  82.8450845 122.5591695  78.3233475
  82.5813134 121.3732568  79.2266290  76.9123707 125.4291851  66.2802342
  77.0798109 126.2972087  66.6472813  76.7220876 125.5919132  65.3563631
  83.0696184 126.4091370  75.6265610  82.1613061 126.3406778  75.3324371
  83.0183779 126.8863315  76.4547435  76.8912927 127.8849508  67.2649009
  76.7712553 128.3306559  68.1034489  76.1965516 128.2334826  66.7062547
  77.1437049 127.8281015  83.5700507  76.3670383 128.3874936  83.5603372
  77.7827612 128.3137798  84.0915377  84.9357830 124.6107808  77.4043484
  84.2932210 124.9040341  76.7583278  84.4312758 124.4960729  78.2096680
  82.5897994 128.3570981  68.0929343  83.5015850 128.5898368  67.9177041
  82.0807641 128.9408026  67.5304422  80.8738761 132.7795609  81.7290636
  81.2822117 132.3378020  80.9845268  80.1516023 132.2048237  81.9824828
  77.2269831 127.7168216  79.1024192  78.0731027 128.1407630  79.2458841
  77.1668469 127.0601840  79.7962756  80.3769277 125.3772584  80.7605366
  80.1330209 126.1314645  80.2239642  80.6529207 125.7557932  81.5952613
  82.3307739 131.9211197  79.4382632  82.5424635 132.5642957  78.7617013
  82.2837488 131.0873513  78.9704562  79.9333968 124.5329017  76.3419204
  79.0718447 124.8310271  76.6335941  79.9596403 124.7499416  75.4100236
  75.6864424 129.1994360  69.5582575  76.3888467 129.6515404  70.0256501
  75.3545052 128.5578179  70.1862468  74.1344785 127.7906117  83.9333784
  73.5043446 128.4722398  84.1669181  74.0280873 127.6789199  82.9886922
  69.4289758 127.4577913  74.8599708  68.6388812 127.7135442  74.3839819
  69.9201005 128.2726251  74.9651749  71.3804503 127.8222492  71.8183185
  70.5835666 127.9341187  72.3366681  71.1530095 128.1609144  70.9524075
  73.4125528 122.0926883  86.2959035  73.0192474 121.5393081  86.9706679
  74.2291668 122.4037461  86.6865553  76.3293489 123.5084762  83.8879292
  77.0703202 124.1091915  83.8083754  76.5611412 122.7662400  83.3297334
  71.4734827 128.6941129  82.1657521  71.3588342 127.7926386  82.4664620
  70.6179345 128.9404826  81.8142338  80.2750652 119.5365865  78.1643573
  79.9314921 120.4267507  78.0882684  80.6429615 119.3467523  77.3013158
  80.2400935 129.5274476  66.6716008  79.7247558 130.2979081  66.9104396
  79.9678243 128.8539612  67.2949070  77.8248046 124.3724177  71.7301247
  76.9689642 123.9831027  71.5506886  78.2374998 124.4516138  70.8701032
  79.3547192 121.9070520  76.1292807  78.8511988 121.8700655  75.3160612
  79.6477799 122.8163263  76.1889463  75.5990078 121.9909250  75.1358988
  76.4643075 121.7952058  74.7764878  75.6667587 121.7619602  76.0628345
  80.0287238 127.4001568  68.4975790  79.7237374 127.7147717  69.3485933
  80.9817680 127.4782988  68.5403123  73.2052397 124.2211458  72.5075355
  73.7796149 123.9986639  71.7748548  73.7923380 124.2900152  73.2603956
  82.2631975 130.1085185  73.3139732  82.7763856 130.7415176  73.8161441
  82.9133198 129.5086380  72.9483092  73.5321985 126.2515919  66.5271240
  72.6959297 126.5890605  66.8480515  73.3926754 126.1164898  65.5898377
  75.5075065 121.0952707  71.2350425  74.8539477 120.7801724  70.6107039
  75.4655539 120.4728447  71.9610247  76.6186270 131.3772002  63.1503717
  75.7113332 131.1461255  63.3494866  77.1157302 130.5809621  63.3377698
  78.7412805 127.5834640  75.5598072  77.8235367 127.8049587  75.4019760
  79.1572949 127.6580951  74.7009780  79.5247853 128.9826056  70.6900752
  80.2719672 129.4947453  70.3807874  79.7939443 128.6610109  71.5505146
  77.7974503 131.4784597  67.6727707  76.8885723 131.1943629  67.7700176
  77.8269587 131.8983675  66.8131014  81.9726690 126.0183172  72.6719542
  81.2349447 125.5060558  73.0029784  82.2253464 125.5783554  71.8602819
  82.0738318 118.7959424  73.2661311  82.3797195 117.9356787  72.9787226
  82.7990923 119.3877044  73.0660305  76.3459397 129.0913217  73.7737502
  76.4008007 128.1387054  73.6979979  75.5350599 129.2472656  74.2578801
  74.2851757 127.7090277  71.5327881  73.4719623 128.0084447  71.9393073
  74.7810752 127.3145966  72.2502363  79.8825969 128.1732101  80.3642775
  80.2375357 128.4003574  81.2237241  80.5298100 128.5050478  79.7420030
  73.7765832 125.2808632  77.1489116  74.4165211 125.1397391  76.4512079
  72.9443363 124.9943146  76.7727718  70.8608899 128.7254145  69.3383861
  69.9306488 128.6638600  69.5553823  70.9566371 128.2030097  68.5420502
  70.7794449 125.2508957  71.9262103  71.0401266 126.1654291  71.8171263
  71.6011621 124.7833400  72.0758716  72.2519374 126.6646715  79.0960927
  72.9242427 126.4564077  78.4473576  71.4249160 126.4668801  78.6566160
  78.1544946 123.2908655  81.1126588  77.5072861 123.9898605  81.0191065
  78.9245961 123.7244799  81.4802836  78.3309080 131.1289420  79.1723408
  79.2601140 131.2800580  78.9992375  77.9100110 131.2173441  78.3172054
  72.6546871 129.9389318  79.8563364  72.5166669 129.2069556  80.4574903
  73.5651795 129.8498218  79.5747552  81.6161819 131.8777722  64.6047843
  80.9990989 131.1524550  64.5080896  81.1478307 132.6387082  64.2614917
  75.2829172 129.6509277  79.3447044  75.9928790 129.0102469  79.3033662
  75.2398480 129.9022172  80.2673225  73.9958106 126.6374495  81.1642684
  73.4595463 126.1865233  81.8164280  73.4074814 126.7720404  80.4213148
  73.4060365 126.0963146  63.7269147  72.5289831 125.9751947  63.3631394
  73.8818118 125.3049224  63.4748036  69.7297227 125.7730502  78.2495678
  69.6455416 125.1656172  77.5146088  68.9079933 126.2639521  78.2505174
  79.9020941 124.2584066  73.6165873  80.3989640 123.5054028  73.2966943
  79.1307922 124.2948383  73.0509082  76.4855910 126.4001449  73.3437558
  76.1153697 125.8472489  74.0318463  76.9815002 125.7959582  72.7912558
  84.3723273 128.8573072  71.7254331  84.8383725 129.6901064  71.6514633
  84.8230773 128.3918054  72.4299589  82.3439936 121.2253659  75.7645232
  81.4303015 121.4557886  75.9327439  82.7733037 121.3092104  76.6159264
  82.1146394 129.4143551  78.2645126  81.4617844 129.6619459  77.6097579
  82.4926774 128.6007690  77.9307603  78.1633967 130.1563362  84.7511163
  77.4874604 130.0557492  85.4213538  78.9861601 130.0002576  85.2147160
  71.8821243 123.8105440  79.5890664  71.9462570 124.6720271  79.1768061
  71.8188364 123.1979441  78.8563022  71.3573516 125.8828572  83.2363698
  71.9845555 125.5005650  83.8501222  70.5001435 125.6642774  83.6019391
  68.1339059 127.6905001  69.1682053  68.4292500 126.7815680  69.1149107
  67.2327094 127.6692741  68.8463055  71.6633306 125.7660998  75.1509601
  70.9419891 126.3796966  75.0117075  72.4526561 126.3018763  75.0726247
  74.4659619 123.1015424  81.4250253  74.9894021 123.3477721  82.1876563
  74.2471952 123.9335459  81.0053391  69.8626900 125.3719099  69.2921378
  69.5339606 124.4916478  69.1096484  70.2166271 125.3166768  70.1797767
  72.9768723 125.6592069  69.6596856  73.3164796 126.1877990  68.9375464
  73.4240844 125.9972475  70.4355422  75.6712164 124.0429120  79.1099924
  75.3308984 123.2436933  79.5120604  74.9651170 124.3430830  78.5376757
  76.3228636 121.1278432  77.5627247  77.1454705 120.6538910  77.4406137
  76.5666699 121.9068916  78.0625933  74.9636870 124.1566690  67.8590148
  75.6845233 124.5347943  67.3553865  74.3402175 124.8755567  67.9625126
  79.1067993 124.8611839  68.7948481  79.3231608 125.7436477  68.4937309
  78.6262060 124.4698053  68.0654123  73.8467215 127.8197553  75.3719225
  73.7011795 128.1337856  76.2643507  73.3692418 128.4382453  74.8190124
  75.7063598 124.8100101  75.4200115  75.6925166 123.9141194  75.0832413
  76.4236026 124.8170764  76.0538401  77.5589728 125.2437441  77.4653242
  77.3007506 126.1654511  77.4637573  77.0274769 124.8467875  78.1553706
  75.1100494 123.6914481  70.6887685  75.2316405 122.7631127  70.8878573
  74.8202536 123.7053167  69.7766000  77.9791684 121.3769391  73.8254405
  78.0013381 121.4408724  72.8706384  78.3959743 120.5373900  74.0194911
  74.5941573 125.2046478  84.8977618  74.6429729 126.0808601  84.5155387
  75.1364087 124.6623871  84.3249261  82.4898056 128.5810996  82.8070790
  83.3907919 128.4417461  82.5154788  82.5646031 128.7465451  83.7468967
  76.8240862 125.9577851  81.6523976  75.9544171 126.2511417  81.3806565
  77.0600342 126.5418296  82.3731240  84.9499679 130.1409624  80.2033563
  85.4253800 130.3337270  79.3952414  84.0265244 130.1968810  79.9576946
  79.5279895 122.1757468  79.1689397  80.0461839 122.9118495  78.8435885
  79.1735028 122.4821461  80.0036156  71.1078833 127.0362149  67.2850803
  70.4148078 127.1106504  66.6290839  70.8630585 126.2722492  67.8072319
  79.7792490 118.5957750  74.6890293  80.0594243 117.9280939  75.3150720
  80.5643096 118.7886846  74.1764957  83.6501348 127.0175384  78.4361868
  84.6018771 127.1173482  78.4574092  83.4804798 126.2253653  78.9459953
  81.6715727 124.1030967  78.6221269  81.0765659 124.3835980  77.9267758
  81.3865424 124.5924868  79.3938010  77.9672757 129.1077557  63.5931372
  78.9131861 128.9783765  63.6619790  77.5887001 128.3692219  64.0700800
  86.2783914 127.0292547  77.5962451  85.7622963 126.2451004  77.4092380
  87.1623863 126.7011264  77.7608971  83.9394641 120.7733563  73.5558264
  83.7419462 120.4648651  74.4401596  84.5494347 121.4995202  73.6856194
  76.1515674 127.0327533  63.5286257  75.2447129 126.7360646  63.6048971
  76.4291655 126.7357351  62.6620544  77.7677739 121.5764423  69.6830499
  76.9578468 121.2311508  70.0585745  78.4562156 121.2671967  70.2718110
  79.6968288 120.6542470  71.3054795  80.2499326 121.0737923  71.9644818
  79.9338374 119.7278218  71.3477751  75.7201387 126.6429543  87.0857559
  75.6198114 127.5923900  87.0169650  75.5022929 126.3147782  86.2133629
  74.9214458 123.8914468  63.6698237  75.7833622 124.2169367  63.9294054
  75.1064802 123.1045964  63.1571302  83.0747095 122.7642995  70.8133460
  82.4945764 123.4227799  70.4311512  82.8083027 121.9420339  70.4020877
  81.5250661 122.1648053  73.0154780  82.0250440 122.2764587  72.2069099
  82.1686269 121.8609105  73.6555588  75.5832657 130.0726682  85.9022621
  75.0999739 130.8727042  86.1086510  75.6693596 130.0834627  84.9490065
  81.8571973 124.9243085  69.8689808  80.9697828 125.2092736  69.6510003
  82.2725962 124.7636849  69.0217085  85.2086509 124.9489606  73.5844147
  85.9846899 125.4386059  73.8568764  84.4834643 125.3747660  74.0416017
  87.6459068 125.6617225  74.6418088  88.2403558 125.4212961  73.9311396
  87.7185651 124.9424356  75.2691624  81.8312997 130.4397621  70.0840098
  81.7748198 130.8966173  69.2447730  82.3841339 129.6788306  69.9062941
  85.6417802 126.2287353  70.9090217  85.3854737 125.8283989  71.7398425
  85.0170670 126.9431147  70.7840357  82.5647776 131.6302402  67.3792627
  82.5096580 131.4646674  66.4381071  81.9393831 132.3378435  67.5354817
  67.3540291 126.8670467  81.2054049  67.9999154 126.3569421  81.6941275
  67.1457442 127.6039148  81.7797475  75.8743901 121.1310511  66.9577946
  75.8622571 122.0752351  67.1146216  76.7667323 120.9480657  66.6637407
  79.6896021 117.7253288  71.2123882  78.9228417 117.1711775  71.3580565
  80.1006726 117.7975157  72.0738034  71.6937782 124.0138084  85.3029064
  72.5569243 123.6574889  85.5132388  71.1203192 123.6751979  85.9904468
  15.6629879  15.3458639  62.8336771  16.3008289  15.2265386  62.1300111
  15.5450721  16.2939483  62.8924723  12.4719585  15.2986067  62.7698296
  12.1338096  15.1827132  61.8818831  13.3409353  14.8977232  62.7499302
   8.3306401  17.1521544  58.7595187   7.7671266  17.0611481  57.9911475
   8.2158796  16.3321448  59.2397679  12.9539368  16.4520919  68.7284501
  12.9428009  16.0573717  67.8565005  13.1160007  15.7186992  69.3218273
   5.8770832  18.6472735  61.5979407   6.6692124  18.3063560  61.1825707
   6.1167483  18.7567710  62.5181561  13.9105959  20.8192511  54.0709652
  13.2593939  21.4046592  53.6843666  14.7050322  21.3498706  54.1304689
   7.8361586  17.9081648  54.4696786   8.6092462  17.3610636  54.3309662
   8.1886985  18.7725898  54.6811247   9.6746629  19.2358031  67.6763685
   9.3836495  20.1403662  67.5610352  10.3103613  19.2774558  68.3907755
  10.6002836  16.6134879  64.2665045  11.1966408  16.3890902  63.5522008
  10.6577807  15.8719625  64.8690493  10.1727864  14.0674315  52.1015236
  10.4253385  13.5455836  51.3398699   9.2352423  13.9040460  52.2041920
  15.2171147  13.0710093  59.9089979  16.0034236  12.6529516  59.5580396
  15.4809851  13.9756185  60.0771628  15.3881224  18.5082943  54.6078636
  14.7527057  18.5817570  55.3199541  15.0578631  19.0976542  53.9297715
  20.6179574  13.0085326  60.8122958  21.3504746  12.4384543  61.0460787
  19.8618930  12.6206927  61.2529463   9.8924153  15.9702421  54.3039611
   9.7760411  15.2947324  54.9720695  10.0026413  15.4834794  53.4871764
  12.2355694  15.4312568  58.0086300  11.8713901  14.9043189  58.7199222
  13.0922810  15.0411037  57.8352786  18.1404995   6.7206900  65.2717566
  17.8088319   7.5902311  65.0478781  17.5450608   6.4043184  65.9511597
  11.8761181  10.4602467  53.0047649  12.0435583  11.3282704  53.3718120
  11.6858350  10.6229749  52.0808938  14.6336514  18.9219446  64.6713479
  14.3337237  19.8244485  64.5629286  14.2887574  18.6551629  65.5234632
   8.0848996  15.3733243  60.7050184   7.1599492  15.2409457  60.9127875
   8.3333409  16.1527462  61.2020126  18.0333658  11.4401986  62.3510916
  17.1250535  11.3717395  62.0569677  17.9821254  11.9173931  63.1792742
  11.8550402  12.9160125  53.9894316  11.7350027  13.3617176  54.8279796
  11.1602990  13.2645442  53.4307854   5.4457807  15.0166517  61.5393973
   5.5750188  15.2700996  62.4533384   4.7655258  15.6094225  61.2198628
   9.6157294  25.6863767  57.6384447   9.5381324  26.6371592  57.7172927
   9.0118937  25.3409639  58.2959373  12.1074524  12.8591632  70.2945814
  11.3307858  13.4185552  70.2848678  12.7465087  13.3448415  70.8160684
  19.8995304   9.6418425  64.1288790  19.2569685   9.9350958  63.4828585
  19.3950233   9.5271345  64.9341987  17.5535468  13.3881598  54.8174650
  18.4653324  13.6208985  54.6422347  17.0445115  13.9718642  54.2549728
  10.3620896  15.6677085  69.8563781  11.1035580  16.2062129  69.5798604
   9.6557881  16.2943374  70.0135332  15.8376236  17.8106226  68.4535942
  16.2459592  17.3688636  67.7090575  15.1153497  17.2358853  68.7070135
  12.1907306  12.7478833  65.8269499  13.0368501  13.1718246  65.9704148
  12.1305943  12.0912457  66.5208062  16.1605050  18.3707416  62.2088231
  15.5313913  18.5353131  61.5064299  15.7730712  18.7849026  62.9799195
  20.0394282  19.3061854  59.5632595  19.3545320  19.6860756  59.0129628
  20.1238131  19.9157181  60.2964543  15.3406751  10.4083201  67.4850673
  15.0967683  11.1625261  66.9484948  15.6166681  10.7868549  68.3197920
  17.2945214  16.9521813  66.1627938  17.5062109  17.5953573  65.4862319
  17.2474962  16.1184130  65.6949868  14.8971443   9.5639634  63.0664510
  14.0355922   9.8620888  63.3581248  14.9233877   9.7810033  62.1345543
  11.7133012  18.1081825  59.4738316  12.1771358  18.3869528  58.6842939
  11.4489810  17.2065269  59.2911407   8.6057093  17.6553306  62.4118079
   9.1758450  18.0840574  61.7735564   9.1965205  17.3735891  63.1102265
  10.6501898  14.2304977  56.2827881  11.3525942  14.6826021  56.7501808
  10.3182527  13.5888796  56.9107774   9.0982260  12.8216734  70.6579091
   8.4680920  13.5033014  70.8914488   8.9918348  12.7099815  69.7132229
  18.4091042  19.8293769  64.3350296  19.2308485  19.4273956  64.0532977
  18.4053445  19.7262003  65.2866411  12.1747645  19.3777812  66.4911006
  12.2392078  19.8398219  67.3269178  11.4658569  18.7475177  66.6193316
  26.4997035  16.1732517  60.6835267  25.7460743  15.6039915  60.5279272
  26.6344576  16.1395182  61.6305902  11.8895663  21.0445920  56.3589987
  11.7541338  21.8897455  56.7874834  12.4305475  21.2465197  55.5955920
   5.3425060  18.5621358  56.9317912   5.8549581  19.3564608  57.0823476
   5.9947773  17.8647648  56.8651513   7.1519945  21.6787114  59.0140665
   7.3286573  22.6005079  58.8261649   7.9476778  21.3645533  59.4435045
  13.5164139  21.6669486  70.4890329  13.0727993  20.8805865  70.1711233
  14.1781353  21.8548637  69.8234219   8.2751260  23.1965288  65.0151007
   8.8258685  23.0682351  64.2428001   7.4362736  23.4960177  64.6645900
  15.6145377  21.9472286  68.5171730  15.5963853  22.7681167  68.0251999
  16.5365297  21.8226361  68.7421871  12.0718431  19.4616415  69.3595238
  12.6046768  18.7004704  69.1294546  11.5432513  19.1690067  70.1019393
  15.2038409  14.5585093  53.3961315  14.6885033  15.3289697  53.6349703
  14.9315718  13.8850229  54.0194377  20.1772683  17.3117447  55.3314489
  19.4002126  16.9728607  54.8869651  20.8564164  17.3170070  54.6569454
  14.9924712  12.4312185  55.2221096  14.6874848  12.7458334  56.0731239
  15.9455154  12.5093604  55.2648429  13.4371144  18.5902408  56.8714050
  12.9092506  17.8555168  56.5587288  12.9358647  19.3677084  56.6254019
  18.4163990  16.7851428  61.9881097  17.7587665  17.4750690  62.0761225
  19.2204389  17.1747860  62.3315083  17.2269449  15.1395801  60.0385038
  17.7401331  15.7725793  60.5406748  17.8770673  14.5396997  59.6728398
  11.5823744  16.4082618  49.8749023  10.6750806  16.1771872  50.0740172
  12.0794776  15.6120237  50.0623005  14.4891823  25.1180125  52.7945709
  13.8153522  25.4211822  53.4030667  14.8757645  25.9209206  52.4451167
  13.7050280  12.6145257  62.2843379  12.7872841  12.8360204  62.1265067
  14.1210423  12.6891567  61.4255086  14.4885328  14.0136672  57.4146059
  15.2357146  14.5258070  57.1053181  14.7576917  13.6920725  58.2750453
  12.7611978  16.5095213  54.3973013  11.8523197  16.2254246  54.4945483
  12.7907062  16.9294292  53.5376320  17.9931245  20.1201803  58.1664181
  17.5393572  19.2792712  58.2229371  17.3625212  20.7563201  58.5038961
  16.9364165  11.0493789  59.3964848  16.1986921  10.5371175  59.7275091
  17.1890938  10.6094170  58.5848125  16.4364184  21.9578299  59.1013999
  16.7287159  22.5183356  58.3826365  16.9462805  22.2506860  59.8567158
  11.3096872  14.1223834  60.4982809  11.3645482  13.1697670  60.4225285
  10.4988074  14.2783273  60.9824107  12.4588066  18.0503957  51.7361092
  12.0207495  17.3339816  51.2766729  13.1998506  18.2780072  51.1746183
   9.2489232  12.7400893  58.2573188   8.4357097  13.0395064  58.6638380
   9.7448226  12.3456582  58.9747670  11.3997810  22.7358650  60.1907452
  11.3573988  22.9619497  59.2615984  12.3160508  22.5022025  60.3393253
  14.8463443  13.2042718  67.0888081  15.2012831  13.4314191  67.9482547
  15.4935575  13.5361095  66.4665337  20.5761180  16.3261154  57.7937411
  20.4379079  16.5162750  56.8658600  20.2197399  17.0880537  58.2505462
  20.6030560  18.3937681  62.8048682  21.0367067  18.3012970  63.6531736
  21.3162141  18.3695181  62.1668698   9.5163610  19.6121679  59.9869415
  10.3104209  19.1171999  59.7851990   8.8055303  19.0839542  59.6237121
  14.3358455  21.9939775  64.3381783  14.3895477  22.5630711  65.1059499
  13.4673236  22.1641660  63.9735820  21.4646109  18.4361381  65.3381567
  21.6582000  19.3407192  65.5840842  21.3646728  17.9768800  66.1720152
  16.5261218  18.5868124  70.9122448  16.3746725  18.3578676  69.9952532
  16.5165898  19.5438726  70.9253793  13.2946555  16.1600037  65.8968714
  14.2238615  16.3111197  65.7237682  12.8737585  16.2484058  65.0417361
  12.0934886  20.1850701  63.6667252  11.9545972  19.8169486  64.5393190
  11.3049483  20.6998341  63.4951210  12.6883038  25.2859798  55.0092789
  12.8634794  24.8147841  55.8238411  12.0015826  25.9125564  55.2374049
  13.6440101  19.5632304  61.0556090  13.3089934  19.5233074  61.9513740
  13.1444047  18.8977020  60.5826500   7.6184345  14.9699934  66.5808671
   7.4804143  14.2380173  67.1820210   8.5289269  14.8808834  66.2992859
  16.5799293  16.9088338  51.3293150  15.9628464  16.1835167  51.2326202
  16.1115782  17.6697699  50.9860224  10.2466646  14.6819893  66.0692351
  10.9566265  14.0413086  66.0278969  10.2035954  14.9332788  66.9918531
  18.2353425  21.6187247  68.9898930  18.1765971  20.9346467  68.3229513
  18.6372943  22.3606237  68.5379556   7.2544124  28.4349161  61.7832649
   7.4940722  29.0667685  62.4611667   6.4113320  28.0837201  62.0698008
  18.2370832  19.5826831  67.2212910  17.3497611  19.2452752  67.3439308
  18.8069383  18.8509862  67.4581675  11.7671985  24.2428283  64.1874153
  11.6942157  25.0483255  64.6993457  11.3249379  24.4420249  63.3622174
  11.5561765  23.4800053  57.6976974  10.7729287  24.0221733  57.7915199
  12.2554510  23.9974033  58.0971215  14.8658415   9.2894682  60.3411180
  15.3627115   8.5364645  60.0212250  14.0945397   9.3258999  59.7754389
  22.7188173  14.9935048  61.9829471  22.7078049  15.8759763  61.6123404
  21.8505552  14.6406599  61.7884008  14.2270669  24.1415117  66.3432311
  14.9398641  24.7762582  66.2708213  13.7360698  24.2378983  65.5272313
  15.9488196  18.0466370  57.9149603  15.0144475  18.1667832  57.7454307
  16.1264864  17.1438836  57.6509613  11.4493384  11.4312065  60.0682864
  11.0791171  10.8783106  60.7563770  11.9452476  10.8270199  59.5157864
  19.3360747  13.8883689  58.4499637  19.8021199  14.7211681  58.3759940
  19.7868248  13.4228671  59.1544896   9.2782583  21.8909561  67.1637882
   9.9792042  22.5246043  67.3167276   8.8077698  22.2324292  66.4033522
  17.4036978  20.2327510  55.4485789  17.6796822  20.1184105  56.3579663
  16.5341477  19.8344995  55.4097962  17.0783868  14.4454168  64.9890433
  16.4255319  14.6930075  64.3342885  17.4564248  13.6318306  64.6552910
  14.0391042  24.4813861  59.0918603  14.2213437  23.6635517  59.5546355
  14.8624028  24.6981553  58.6543493  14.3733208  23.4082046  56.3533651
  14.9020974  22.8974501  55.7403813  14.6361427  23.0924576  57.2179184
  13.1271442  15.1873979  71.4756470  12.4512079  15.0868108  72.1458845
  13.9499075  15.0313193  71.9392467   4.8750301  21.4245916  64.0968985
   5.4603737  20.6789603  64.2296889   4.6775139  21.7349872  64.9805649
   7.7288956  24.4597163  59.1131427   7.0599331  24.9443291  58.6295467
   7.5901825  24.7066383  60.0274806  11.8694224  26.4940906  65.7114086
  12.4212532  26.6572528  66.4763171  12.2100418  27.0845344  65.0394111
  16.7205099  21.3202164  71.5662740  17.2645003  21.9332122  71.0717695
  16.1391944  21.8781742  72.0829753  15.0062612  24.4422882  62.6977768
  14.8813751  23.6412622  62.1888713  15.6641703  24.9369075  62.2091738
  17.0697520  22.2431902  64.3257318  16.1227856  22.1237253  64.2535645
  17.4180293  21.3554400  64.4083579  14.0743953  22.0384618  60.5261670
  13.9268916  21.1101326  60.7069240  14.8997447  22.0604709  60.0418745
  17.6778075  22.8613177  61.6126543  18.6024623  22.6556038  61.4750994
  17.5093379  22.6129578  62.5215884  14.0705468   9.8922456  55.5193787
  14.2869082  10.7747094  55.2182616  13.5899535   9.5008669  54.7899429
   8.8104689  12.8508169  62.0964532   8.6649270  13.1648472  62.9888814
   8.3329893  13.4693069  61.5435431  17.4673391  23.3798844  56.9688634
  17.6410269  22.8145267  56.2162487  17.9602283  24.1799739  56.7868124
  23.3212783  16.1435267  58.5878934  23.7643929  15.3942593  58.1898057
  22.4439293  16.1345404  58.2052666  18.4548564  22.6965609  54.0685533
  19.1499469  23.3172302  54.2872847  18.7971714  21.8460960  54.3437911
  20.3539987  20.1465314  55.5972863  20.8791311  20.4852587  54.8722183
  20.2662340  19.2112330  55.4135998  12.0160036  24.0599388  67.7262740
  12.3247162  23.8148535  68.5985440  12.8135518  24.2646027  67.2381610
  12.0380648  26.2137298  59.9568117  11.5985638  25.7213676  60.6500973
  12.7888765  25.6710265  59.7160192   4.5172987  22.4048839  59.9592745
   5.3431007  22.1052610  59.5791388   4.1667039  21.6356461  60.4082533
   9.4854520  21.7575307  62.0290418   8.8634529  21.0946012  61.7292646
  10.1559387  21.7836439  61.3464066   2.7181592  20.3235165  60.9181678
   1.8813500  19.8957339  60.7365680   2.6905237  20.5167608  61.8552469
  20.0433893  20.7798218  70.9024061  19.2529437  20.7622357  70.3628561
  19.8067248  21.3186512  71.6573098  20.1631768  17.6290684  68.2156790
  20.2129773  17.4640692  69.1572313  20.0545691  16.7617943  67.8254671
   9.0468027  20.3079230  55.5048879   9.1956147  20.9914694  54.8515552
   9.8534470  20.2884320  56.0198335  17.4535531  13.6121612  69.5316097
  18.3545393  13.4728077  69.2400094  17.5283505  13.7776067  70.4714274
  11.7878336  10.9888467  68.3769283  10.9181645  11.2822033  68.1051871
  12.0237816  11.5728912  69.0976547  21.6649965  20.0487626  68.4598811
  21.3734773  20.4117606  69.2962272  21.0522096  19.3354634  68.2812144
  22.8645647  17.6140506  60.9801382  23.6992539  18.0530310  61.1438942
  23.0004776  17.1379159  60.1609627  19.9137153  15.1720241  66.9278869
  20.3891275  15.3647887  66.1197721  18.9902719  15.2279426  66.6822253
   6.8020660  16.3344408  56.5109948   6.5566702  15.4306738  56.7090158
   6.9716574  16.3361558  55.5689426  12.5463432  22.8027361  52.9760626
  11.9737399  23.4217548  52.5231098  13.1196226  23.3526722  53.5100548
  18.6138822  12.0486001  65.1607175  19.5656245  12.1484098  65.1819399
  18.4442273  11.2564269  65.6705259  16.6353202   9.1341584  65.3466576
  16.0403134   9.4146597  64.6513065  16.3502898   9.6235485  66.1183317
  15.7660692  23.0864511  54.1069209  16.6991365  23.0210072  54.3102084
  15.6783905  23.9220778  53.6483741  18.3948709  22.4030381  51.0673156
  18.3162340  22.0690245  51.9608914  19.2158376  22.8952149  51.0664628
  21.0926900  15.2692120  64.2749475  21.0603220  14.3308121  64.4609159
  21.7027524  15.3476157  63.5415300  12.9310231  14.1388173  50.3176679
  13.8769336  14.0094381  50.3865097  12.5524476  13.4002835  50.7946107
  21.2421388  12.0603164  64.3207758  20.7260437  11.2761620  64.1337687
  22.1261337  11.7321880  64.4854277  18.9032115   5.8044179  60.2803571
  18.7056937   5.4959268  61.1646903  19.5131821   6.5305818  60.4101500
  26.9103450  16.3308127  63.4155511  27.6406838  16.0693415  63.9763215
  26.3010395  15.5936849  63.4557579  24.9918747  14.4715990  64.0129963
  24.2651911  14.3371955  63.4046454  24.5766034  14.7792818  64.8186681
  12.8148923  18.1905919  71.7777336  13.7351933  18.3684518  71.9717382
  12.7798506  17.2461965  71.6257035  11.1153148  12.0638150  50.2531564
  10.2084603  11.7671262  50.3294278  11.3929129  11.7667968  49.3865850
   5.8110996  16.1006954  64.4200117   6.0297006  17.0324062  64.4388151
   6.2236770  15.7414929  65.2054921  10.6838861  11.6740160  73.8102866
  10.5835588  12.6234517  73.7414957  10.4660403  11.3458399  72.9378936
  18.0384569   7.7953611  57.5378766  17.4583238   8.4538415  57.1556819
  17.7720502   6.9730956  57.1266184  16.4888135   7.1958669  59.7400086
  16.9887914   7.3075204  58.9314405  17.1323743   6.8919722  60.3800895
  10.5470131  15.1037299  72.6267927  10.0637213  15.9037659  72.8331816
  10.6331070  15.1145244  71.6735371   3.8156091  16.9365678  60.5489747
   3.7926779  17.0353366  59.5971630   4.1256727  17.7830829  60.8706913
   6.4743469  18.9941833  64.6636361   7.4286722  18.9625776  64.5966293
   6.2755992  18.5332457  65.4786587   7.0642851  17.5642949  67.2307159
   7.8835740  18.0587028  67.2541996   7.3379659  16.6474918  67.2024726
  16.8209447   9.9553702  56.5935114  15.9335302  10.2403352  56.3755309
  17.2363436   9.7947465  55.7462391  20.1723983   9.9800223  60.3089454
  20.9484373  10.4696675  60.5814070  19.4472117  10.4058277  60.7661323
  22.6096542  10.6927842  61.3663394  23.2041033  10.4523578  60.6556703
  22.6823126   9.9734973  61.9936931   4.8293698  24.5361453  61.6806559
   4.6948166  23.7761854  61.1144557   4.4125760  25.2602353  61.2135348
  15.9652661  19.7198376  50.6883134  16.6688511  19.9248379  51.3040790
  15.2415309  20.2875138  50.9532218  16.7950471  15.4708238  56.8085405
  16.7385672  15.9276789  55.9693037  17.3478813  14.7098922  56.6308247
  20.6055277  11.2597970  57.6335524  20.3492211  10.8594605  58.4643732
  19.9808145  11.9741763  57.5085663  24.9167615  13.9994043  60.1406815
  24.3567173  14.0687232  60.9138378  24.3111118  13.8235027  59.4206312
   7.9862823  25.4330770  61.8925002   7.8695208  26.3776202  61.7903692
   7.1655270  25.1304331  62.2810801  17.8739358  20.1580906  52.7381594
  18.7084962  19.7262104  52.5559069  17.7123701  19.9862919  53.6658489
  17.5285250  16.6613019  54.1037934  17.4734054  16.4957290  53.1626378
  16.9031305  17.3689052  54.2600123  14.8431157  18.9661931  73.4291497
  15.7122317  19.1402583  73.0678131  14.3637909  19.7856348  73.3067226
   9.0117338  26.0859032  65.1080930   9.9144584  26.1182642  65.4247425
   8.7854708  25.1559483  65.1227266  10.7670940  24.8390018  61.7691009
   9.8166571  24.8391880  61.6555381  11.0703426  24.0922753  61.2527043
  26.5023633  30.6750557  62.8336771  27.1402043  30.5557304  62.1300111
  26.3844476  31.6231401  62.8924723  23.3113339  30.6277985  62.7698296
  22.9731851  30.5119050  61.8818831  24.1803108  30.2269150  62.7499302
  19.1700155  32.4813461  58.7595187  18.6065020  32.3903398  57.9911475
  19.0552550  31.6613366  59.2397679  23.7933122  31.7812837  68.7284501
  23.7821763  31.3865635  67.8565005  23.9553762  31.0478909  69.3218273
  16.7164587  33.9764653  61.5979407  17.5085879  33.6355478  61.1825707
  16.9561237  34.0859628  62.5181561  24.7499714  36.1484429  54.0709652
  24.0987694  36.7338509  53.6843666  25.5444077  36.6790624  54.1304689
  18.6755341  33.2373566  54.4696786  19.4486217  32.6902553  54.3309662
  19.0280740  34.1017815  54.6811247  20.5140383  34.5649948  67.6763685
  20.2230249  35.4695579  67.5610352  21.1497368  34.6066476  68.3907755
  21.4396590  31.9426797  64.2665045  22.0360163  31.7182819  63.5522008
  21.4971562  31.2011542  64.8690493  21.0121619  29.3966232  52.1015236
  21.2647139  28.8747754  51.3398699  20.0746178  29.2332378  52.2041920
  26.0564902  28.4002011  59.9089979  26.8427991  27.9821434  59.5580396
  26.3203606  29.3048103  60.0771628  26.2274979  33.8374861  54.6078636
  25.5920812  33.9109487  55.3199541  25.8972385  34.4268460  53.9297715
  31.4573329  28.3377244  60.8122958  32.1898501  27.7676461  61.0460787
  30.7012684  27.9498844  61.2529463  20.7317907  31.2994338  54.3039611
  20.6154166  30.6239242  54.9720695  20.8420167  30.8126712  53.4871764
  23.0749448  30.7604485  58.0086300  22.7107656  30.2335106  58.7199222
  23.9316564  30.3702954  57.8352786  28.9798749  22.0498818  65.2717566
  28.6482074  22.9194229  65.0478781  28.3844362  21.7335102  65.9511597
  22.7154935  25.7894385  53.0047649  22.8829338  26.6574621  53.3718120
  22.5252104  25.9521667  52.0808938  25.4730269  34.2511364  64.6713479
  25.1730992  35.1536403  64.5629286  25.1281328  33.9843547  65.5234632
  18.9242750  30.7025161  60.7050184  17.9993247  30.5701375  60.9127875
  19.1727163  31.4819380  61.2020126  28.8727412  26.7693904  62.3510916
  27.9644290  26.7009313  62.0569677  28.8215008  27.2465849  63.1792742
  22.6944156  28.2452042  53.9894316  22.5743781  28.6909093  54.8279796
  21.9996745  28.5937360  53.4307854  16.2851561  30.3458434  61.5393973
  16.4143942  30.5992913  62.4533384  15.6049012  30.9386142  61.2198628
  20.4551048  41.0155684  57.6384447  20.3775078  41.9663509  57.7172927
  19.8512692  40.6701557  58.2959373  22.9468278  28.1883550  70.2945814
  22.1701612  28.7477470  70.2848678  23.5858841  28.6740333  70.8160684
  30.7389059  24.9710342  64.1288790  30.0963439  25.2642876  63.4828585
  30.2343987  24.8563263  64.9341987  28.3929222  28.7173516  54.8174650
  29.3047079  28.9500902  54.6422347  27.8838869  29.3010560  54.2549728
  21.2014650  30.9969003  69.8563781  21.9429335  31.5354047  69.5798604
  20.4951636  31.6235292  70.0135332  26.6769990  33.1398143  68.4535942
  27.0853346  32.6980554  67.7090575  25.9547252  32.5650771  68.7070135
  23.0301060  28.0770750  65.8269499  23.8762255  28.5010164  65.9704148
  22.9699698  27.4204375  66.5208062  26.9998805  33.6999334  62.2088231
  26.3707667  33.8645048  61.5064299  26.6124467  34.1140944  62.9799195
  30.8788037  34.6353772  59.5632595  30.1939075  35.0152673  59.0129628
  30.9631886  35.2449099  60.2964543  26.1800505  25.7375119  67.4850673
  25.9361437  26.4917179  66.9484948  26.4560436  26.1160466  68.3197920
  28.1338968  32.2813731  66.1627938  28.3455863  32.9245491  65.4862319
  28.0868716  31.4476048  65.6949868  25.7365197  24.8931552  63.0664510
  24.8749676  25.1912805  63.3581248  25.7627632  25.1101951  62.1345543
  22.5526767  33.4373742  59.4738316  23.0165112  33.7161445  58.6842939
  22.2883565  32.5357187  59.2911407  19.4450848  32.9845224  62.4118079
  20.0152205  33.4132492  61.7735564  20.0358960  32.7027808  63.1102265
  21.4895653  29.5596895  56.2827881  22.1919696  30.0117938  56.7501808
  21.1576281  28.9180713  56.9107774  19.9376014  28.1508651  70.6579091
  19.3074675  28.8324932  70.8914488  19.8312102  28.0391733  69.7132229
  15.2320987  27.8180447  61.5845015  14.4420041  28.0737976  61.1085125
  15.7232234  28.6328785  61.6897055  29.2484796  35.1585686  64.3350296
  30.0702240  34.7565874  64.0532977  29.2447199  35.0553921  65.2866411
  17.1835732  28.1825026  58.5428492  16.3866895  28.2943721  59.0611987
  16.9561324  28.5211679  57.6769382  23.0141400  34.7069730  66.4911006
  23.0785832  35.1690137  67.3269178  22.3052324  34.0767095  66.6193316
  13.5158690  28.0710938  64.0160006  13.7666728  28.9557948  64.2817582
  14.0518238  27.8915539  63.2435097  37.3390789  31.5024435  60.6835267
  36.5854498  30.9331833  60.5279272  37.4738330  31.4687099  61.6305902
  22.7289417  36.3737837  56.3589987  22.5935092  37.2189373  56.7874834
  23.2699230  36.5757115  55.5955920  19.2156757  22.4529417  73.0204342
  18.8223702  21.8995616  73.6951986  20.0322897  22.7639996  73.4110859
  16.1818815  33.8913275  56.9317912  16.6943335  34.6856525  57.0823476
  16.8341528  33.1939566  56.8651513  17.9913699  37.0079032  59.0140665
  18.1680328  37.9296996  58.8261649  18.7870533  36.6937451  59.4435045
  22.1324718  23.8687296  70.6124598  22.8734431  24.4694449  70.5329061
  22.3642641  23.1264934  70.0542641  17.2766056  29.0543663  68.8902828
  17.1619571  28.1528921  69.1909927  16.4210574  29.3007360  68.5387645
  24.3557894  36.9961404  70.4890329  23.9121748  36.2097782  70.1711233
  25.0175107  37.1840554  69.8234219  19.1145015  38.5257205  65.0151007
  19.6652440  38.3974269  64.2428001  18.2756491  38.8252094  64.6645900
  26.4539132  37.2764204  68.5171730  26.4357607  38.0973085  68.0251999
  27.3759052  37.1518279  68.7421871  22.9112186  34.7908333  69.3595238
  23.4440523  34.0296621  69.1294546  22.3826267  34.4981985  70.1019393
  26.0781881  19.8968399  64.8888880  25.7346150  20.7870041  64.8127991
  26.4460843  19.7070057  64.0258465  14.1467731  32.2201930  57.7077482
  14.9842953  32.6298938  57.4911190  14.3245999  31.2801372  57.6777676
  26.0432164  29.8877010  53.3961315  25.5278787  30.6581615  53.6349703
  25.7709472  29.2142146  54.0194377  23.6279275  24.7326711  58.4546553
  22.7720871  24.3433561  58.2752192  24.0406226  24.8118672  57.5946339
  25.1578421  22.2673054  62.8538113  24.6543217  22.2303189  62.0405919
  25.4509028  23.1765797  62.9134770  21.4021307  22.3511784  61.8604295
  22.2674304  22.1554593  61.5010184  21.4698816  22.1222136  62.7873652
  31.0166438  32.6409365  55.3314489  30.2395880  32.3020524  54.8869651
  31.6957919  32.6461988  54.6569454  25.8318467  27.7604102  55.2221096
  25.5268602  28.0750251  56.0731239  26.7848909  27.8385522  55.2648429
  24.2764899  33.9194326  56.8714050  23.7486260  33.1847085  56.5587288
  23.7752401  34.6969002  56.6254019  29.2557745  32.1143346  61.9881097
  28.5981419  32.8042607  62.0761225  30.0598144  32.5039778  62.3315083
  19.0083626  24.5813992  59.2320662  19.5827378  24.3589173  58.4993855
  19.5954609  24.6502686  59.9849263  28.0663203  30.4687719  60.0385038
  28.5795085  31.1017711  60.5406748  28.7164427  29.8688914  59.6728398
  19.3353213  26.6118453  53.2516547  18.4990526  26.9493139  53.5725822
  19.1957983  26.4767433  52.3143684  21.3106294  21.4555241  57.9595731
  20.6570706  21.1404258  57.3352346  21.2686768  20.8330981  58.6855554
  22.4217499  31.7374536  49.8749023  21.5144561  31.5063789  50.0740172
  22.9188531  30.9412155  50.0623005  25.3285578  40.4472043  52.7945709
  24.6547276  40.7503740  53.4030667  25.7151400  41.2501123  52.4451167
  24.5444034  27.9437174  62.2843379  23.6266596  28.1652121  62.1265067
  24.9604178  28.0183485  61.4255086  25.3279082  29.3428590  57.4146059
  26.0750901  29.8549987  57.1053181  25.5970672  29.0212643  58.2750453
  23.6005732  31.8387131  54.3973013  22.6916951  31.5546164  54.4945483
  23.6300816  32.2586209  53.5376320  28.8325000  35.4493720  58.1664181
  28.3787327  34.6084630  58.2229371  28.2018966  36.0855119  58.5038961
  27.7757919  26.3785706  59.3964848  27.0380676  25.8663092  59.7275091
  28.0284693  25.9386088  58.5848125  27.2757939  37.2870217  59.1013999
  27.5680913  37.8475274  58.3826365  27.7856559  37.5798778  59.8567158
  27.8769547  19.1561958  59.9906618  28.1828423  18.2959322  59.7032533
  28.6022151  19.7479578  59.7905612  14.1693903  29.5592645  58.3788216
  13.9718302  28.9662006  57.6539282  13.6140567  29.2544855  59.0964154
  22.1490626  29.4515751  60.4982809  22.2039236  28.4989588  60.4225285
  21.3381828  29.6075190  60.9824107  23.2981820  33.3795874  51.7361092
  22.8601250  32.6631733  51.2766729  24.0392261  33.6071989  51.1746183
  20.0882986  28.0692811  58.2573188  19.2750852  28.3686982  58.6638380
  20.5841980  27.6748500  58.9747670  22.2391564  38.0650568  60.1907452
  22.1967743  38.2911414  59.2615984  23.1554263  37.8313943  60.3393253
  25.6857198  28.5334636  67.0888081  26.0406586  28.7606109  67.9482547
  26.3329329  28.8653012  66.4665337  31.4154935  31.6553071  57.7937411
  31.2772833  31.8454667  56.8658600  31.0591154  32.4172454  58.2505462
  19.5797061  25.6411167  63.8734423  20.2196440  25.4999926  63.1757386
  18.7474591  25.3545680  63.4973025  31.4424314  33.7229598  62.8048682
  31.8760821  33.6304888  63.6531736  32.1555895  33.6987099  62.1668698
  20.3557365  34.9413597  59.9869415  21.1497963  34.4463917  59.7851990
  19.6449057  34.4131460  59.6237121  25.1752209  37.3231693  64.3381783
  25.2289232  37.8922629  65.1059499  24.3066991  37.4933578  63.9735820
  16.6640128  29.0856679  56.0629168  15.7337716  29.0241134  56.2799130
  16.7597600  28.5632632  55.2665809  16.5825677  25.6111492  58.6507409
  16.8432495  26.5256825  58.5416570  17.4042850  25.1435934  58.8004022
  18.0550603  27.0249249  65.8206234  18.7273656  26.8166611  65.1718883
  17.2280389  26.8271335  65.3811466  32.3039864  33.7653299  65.3381567
  32.4975754  34.6699110  65.5840842  32.2040482  33.3060718  66.1720152
  23.9576175  23.6511190  67.8371895  23.3104090  24.3501139  67.7436371
  24.7277190  24.0847334  68.2048143  27.3654973  33.9160042  70.9122448
  27.2140479  33.6870594  69.9952532  27.3559652  34.8730643  70.9253793
  24.1340309  31.4891955  65.8968714  25.0632369  31.6403114  65.7237682
  23.7131339  31.5775975  65.0417361  22.9328641  35.5142619  63.6667252
  22.7939727  35.1461403  64.5393190  22.1443237  36.0290258  63.4951210
  23.5276793  40.6151715  55.0092789  23.7028548  40.1439759  55.8238411
  22.8409581  41.2417482  55.2374049  24.4833856  34.8924222  61.0556090
  24.1483689  34.8524992  61.9513740  23.9837802  34.2268938  60.5826500
  18.4578100  30.2991852  66.5808671  18.3197898  29.5672091  67.1820210
  19.3683023  30.2100752  66.2992859  27.4193048  32.2380256  51.3293150
  26.8022218  31.5127084  51.2326202  26.9509536  32.9989616  50.9860224
  21.0860401  30.0111811  66.0692351  21.7960019  29.3705003  66.0278969
  21.0429709  30.2624706  66.9918531  29.0747179  36.9479164  68.9898930
  29.0159725  36.2638385  68.3229513  29.4766698  37.6898154  68.5379556
  19.7989335  26.9977029  67.8887990  19.2626692  26.5467767  68.5409586
  19.2106043  27.1322938  67.1458455  18.0937878  43.7641078  61.7832649
  18.3334476  44.3959602  62.4611667  17.2507075  43.4129118  62.0698008
  19.2091594  26.4565680  50.4514454  18.3321060  26.3354481  50.0876700
  19.6849347  25.6651759  50.1993342  29.0764587  34.9118748  67.2212910
  28.1891365  34.5744670  67.3439308  29.6463138  34.1801780  67.4581675
  10.7293734  31.2442840  60.5455961  11.4164774  30.9304570  59.9576976
  10.5741862  32.1484205  60.2723212  15.5328456  26.1333037  64.9740985
  15.4486645  25.5258706  64.2391395  14.7111162  26.6242055  64.9750481
  22.6065740  39.5720201  64.1874153  22.5335911  40.3775172  64.6993457
  22.1643133  39.7712167  63.3622174  22.3955520  38.8091971  57.6976974
  21.6123041  39.3513651  57.7915199  23.0948265  39.3265950  58.0971215
  25.7052170  24.6186600  60.3411180  26.2020869  23.8656562  60.0212250
  24.9339151  24.6550917  59.7754389  33.5581927  30.3226966  61.9829471
  33.5471803  31.2051681  61.6123404  32.6899307  29.9698517  61.7884008
  25.0664423  39.4707035  66.3432311  25.7792396  40.1054500  66.2708213
  24.5754452  39.5670901  65.5272313  26.7881950  33.3758287  57.9149603
  25.8538229  33.4959750  57.7454307  26.9658619  32.4730754  57.6509613
  22.2887138  26.7603983  60.0682864  21.9184926  26.2075024  60.7563770
  22.7846231  26.1562117  59.5157864  30.1754502  29.2175607  58.4499637
  30.6414954  30.0503598  58.3759940  30.6262002  28.7520588  59.1544896
  20.1176337  37.2201478  67.1637882  20.8185797  37.8537961  67.3167276
  19.6471452  37.5616210  66.4033522  28.2430733  35.5619428  55.4485789
  28.5190577  35.4476023  56.3579663  27.3735232  35.1636913  55.4097962
  28.1471164  21.5856194  62.4890539  27.2334244  21.8160421  62.6572746
  28.5764266  21.6694638  63.3404571  27.9177623  29.7746086  64.9890433
  27.2649073  30.0221993  64.3342885  28.2958003  28.9610224  64.6552910
  24.8784797  39.8105779  59.0918603  25.0607191  38.9927435  59.5546355
  25.7017783  40.0273471  58.6543493  25.2126962  38.7373964  56.3533651
  25.7414729  38.2266419  55.7403813  25.4755182  38.4216494  57.2179184
  23.9665196  30.5165897  71.4756470  23.2905833  30.4160026  72.1458845
  24.7892830  30.3605110  71.9392467  15.7144055  36.7537833  64.0968985
  16.2997492  36.0081521  64.2296889  15.5168894  37.0641790  64.9805649
  18.5682710  39.7889081  59.1131427  17.8993086  40.2735208  58.6295467
  18.4295580  40.0358301  60.0274806  10.3061710  29.3243433  62.8173428
  10.3445809  28.7907024  63.6110546   9.8002003  28.7978639  62.1984405
  22.7087979  41.8232824  65.7114086  23.2606287  41.9864446  66.4763171
  23.0494172  42.4137262  65.0394111  17.6852472  24.1707974  66.3135970
  17.7493799  25.0322805  65.9013368  17.6219592  23.5581976  65.5808329
  17.1604745  26.2431106  69.9609005  17.7876783  25.8608184  70.5746529
  16.3032663  26.0245308  70.3264697  27.5598853  36.6494082  71.5662740
  28.1038757  37.2624040  71.0717695  26.9785698  37.2073660  72.0829753
  13.9370287  28.0507536  55.8927359  14.2323728  27.1418214  55.8394413
  13.0358323  28.0295275  55.5708362  25.8456366  39.7714800  62.6977768
  25.7207506  38.9704540  62.1888713  26.5035457  40.2660993  62.2091738
  17.4664534  26.1263532  61.8754908  16.7451120  26.7399500  61.7362381
  18.2557790  26.6621297  61.7971554  27.9091275  37.5723820  64.3257318
  26.9621610  37.4529171  64.2535645  28.2574048  36.6846318  64.4083579
  20.2690848  23.4617959  68.1495560  20.7925250  23.7080255  68.9121869
  20.0503181  24.2937993  67.7298697  15.6658129  25.7321633  56.0166685
  15.3370835  24.8519012  55.8341791  16.0197500  25.6769302  56.9043074
  24.9137708  37.3676536  60.5261670  24.7662670  36.4393243  60.7069240
  25.7391201  37.3896627  60.0418745  18.7799952  26.0194603  56.3842162
  19.1196025  26.5480524  55.6620771  19.2272073  26.3575009  57.1600729
  28.5171830  38.1905095  61.6126543  29.4418377  37.9847956  61.4750994
  28.3487133  37.9421496  62.5215884  21.4743393  24.4031654  65.8345230
  21.1340213  23.6039467  66.2365910  20.7682399  24.7033365  65.2622064
  22.1259865  21.4880966  64.2872553  22.9485934  21.0141444  64.1651444
  22.3697928  22.2671450  64.7871240  20.7668099  24.5169225  54.5835455
  21.4876462  24.8950477  54.0799172  20.1433403  25.2358101  54.6870433
  24.9099222  25.2214374  55.5193787  25.1262837  26.1039011  55.2182616
  24.4293289  24.8300587  54.7899429  19.6498444  28.1800087  62.0964532
  19.5043024  28.4940390  62.9888814  19.1723647  28.7984987  61.5435431
  21.5094826  25.1702635  62.1445422  21.4956395  24.2743728  61.8077719
  22.2267255  25.1773299  62.7783708  23.3620957  25.6039975  64.1898549
  23.1038735  26.5257046  64.1882879  22.8305998  25.2070410  64.8799013
  28.3067146  38.7090762  56.9688634  28.4804023  38.1437185  56.2162487
  28.7996037  39.5091657  56.7868124  14.1244106  30.7205431  65.0352193
  13.5797574  31.4965239  65.1672468  15.0023456  31.0676236  64.8771315
  20.9131722  24.0517015  57.4132992  21.0347634  23.1233661  57.6123879
  20.6233765  24.0655701  56.5011307  23.7822913  21.7371926  60.5499712
  23.8044610  21.8011259  59.5951691  24.1990972  20.8976434  60.7440218
  34.1606537  31.4727185  58.5878934  34.6037683  30.7234510  58.1898057
  33.2833047  31.4637321  58.2052666  29.2942318  38.0257527  54.0685533
  29.9893223  38.6464219  54.2872847  29.6365469  37.1752878  54.3437911
  14.9110128  29.8475327  67.9282350  14.1691864  29.9957963  68.5146980
  14.5902872  30.1083593  67.0649099  31.1933742  35.4757232  55.5972863
  31.7185066  35.8144505  54.8722183  31.1056094  34.5404247  55.4135998
  22.8553790  39.3891306  67.7262740  23.1640917  39.1440452  68.5985440
  23.6529272  39.5937944  67.2381610  22.8774402  41.5429215  59.9568117
  22.4379393  41.0505594  60.6500973  23.6282519  41.0002183  59.7160192
  15.3566741  37.7340756  59.9592745  16.1824761  37.4344528  59.5791388
  15.0060793  36.9648379  60.4082533  20.3248274  37.0867224  62.0290418
  19.7028284  36.4237929  61.7292646  20.9953141  37.1128356  61.3464066
  13.5575346  35.6527083  60.9181678  12.7207255  35.2249257  60.7365680
  13.5298992  35.8459526  61.8552469  20.3972802  25.5649012  71.6222924
  20.4460957  26.4411135  71.2400694  20.9395316  25.0226406  71.0494568
  30.8827648  36.1090136  70.9024061  30.0923191  36.0914275  70.3628561
  30.6461002  36.6478429  71.6573098  31.0025523  32.9582602  68.2156790
  31.0523528  32.7932610  69.1572313  30.8939446  32.0909861  67.8254671
  19.8861781  35.6371148  55.5048879  20.0349902  36.3206612  54.8515552
  20.6928225  35.6176238  56.0198335  28.2929285  28.9413530  69.5316097
  29.1939148  28.8019995  69.2400094  28.3677260  29.1067985  70.4714274
  22.6272090  26.3180385  68.3769283  21.7575400  26.6113951  68.1051871
  22.8631571  26.9020830  69.0976547  32.5043719  35.3779544  68.4598811
  32.2128528  35.7409524  69.2962272  31.8915851  34.6646552  68.2812144
  33.7039402  32.9432423  60.9801382  34.5386293  33.3822227  61.1438942
  33.8398531  32.4671077  60.1609627  30.7530908  30.5012158  66.9278869
  31.2285029  30.6939805  66.1197721  29.8296473  30.5571344  66.6822253
  17.6414414  31.6636325  56.5109948  17.3960456  30.7598655  56.7090158
  17.8110329  31.6653476  55.5689426  25.3311124  22.5360002  65.8934703
  25.8493068  23.2721029  65.5681192  24.9766257  22.8423995  66.7281462
  16.9110062  27.3964683  54.0096109  16.2179307  27.4709038  53.3536145
  16.6661814  26.6325027  54.5317626  25.5823718  18.9560284  61.4135600
  25.8625472  18.2883473  62.0396026  26.3674325  19.1489380  60.9010264
  23.3857187  38.1319278  52.9760626  22.8131154  38.7509465  52.5231098
  23.9589981  38.6818640  53.5100548  29.4532577  27.3777918  65.1607175
  30.4050000  27.4776016  65.1819399  29.2836027  26.5856187  65.6705259
  27.4746956  24.4633502  65.3466576  26.8796888  24.7438514  64.6513065
  27.1896653  24.9527402  66.1183317  26.6054447  38.4156428  54.1069209
  27.5385120  38.3501990  54.3102084  26.5177659  39.2512695  53.6483741
  29.2342463  37.7322299  51.0673156  29.1556095  37.3982162  51.9608914
  30.0552130  38.2244067  51.0664628  31.9320654  30.5984038  64.2749475
  31.8996975  29.6600039  64.4609159  32.5421278  30.6768075  63.5415300
  23.7703985  29.4680091  50.3176679  24.7163090  29.3386299  50.3865097
  23.3918230  28.7294753  50.7946107  32.0815143  27.3895081  64.3207758
  31.5654192  26.6053538  64.1337687  32.9655091  27.0613798  64.4854277
  29.7425870  21.1336097  60.2803571  29.5450691  20.8251185  61.1646903
  30.3525575  21.8597736  60.4101500  37.7497204  31.6600045  63.4155511
  38.4800593  31.3985333  63.9763215  37.1404150  30.9228767  63.4557579
  35.8312501  29.8007907  64.0129963  35.1045665  29.6663872  63.4046454
  35.4159788  30.1084736  64.8186681  23.6542678  33.5197837  71.7777336
  24.5745687  33.6976436  71.9717382  23.6192261  32.5753882  71.6257035
  21.9546902  27.3930067  50.2531564  21.0478358  27.0963180  50.3294278
  22.2322883  27.0959885  49.3865850  12.8724843  28.7136431  60.7030610
  12.5527627  27.8601739  60.4104984  12.3258271  28.9285009  61.4588578
  16.6504750  31.4298872  64.4200117  16.8690760  32.3615980  64.4388151
  17.0630524  31.0706846  65.2054921  23.5708968  21.9366957  56.4075805
  22.7609697  21.5914042  56.7831051  24.2593385  21.6274501  56.9963417
  25.4999516  21.0145004  58.0300102  26.0530555  21.4340457  58.6890125
  25.7369603  20.0880752  58.0723058  21.5232616  27.0032078  73.8102866
  21.4229343  27.9526434  73.7414957  21.3054158  26.6750316  72.9378936
  20.7245687  24.2517003  50.3943543  21.5864851  24.5771901  50.6539361
  20.9096031  23.4648498  49.8816609  12.7413103  32.3339342  62.6723732
  12.0476574  31.9193295  62.1593686  13.4886094  32.3759879  62.0757151
  28.8778324  23.1245529  57.5378766  28.2976993  23.7830333  57.1556819
  28.6114256  22.3022874  57.1266184  27.3281890  22.5250587  59.7400086
  27.8281668  22.6367121  58.9314405  27.9717498  22.2211640  60.3800895
  21.3863886  30.4329216  72.6267927  20.9030967  31.2329576  72.8331816
  21.4724825  30.4437161  71.6735371  14.6549845  32.2657596  60.5489747
  14.6320534  32.3645283  59.5971630  14.9650482  33.1122747  60.8706913
  17.3137223  34.3233751  64.6636361  18.2680477  34.2917693  64.5966293
  17.1149747  33.8624375  65.4786587  17.9036605  32.8934867  67.2307159
  18.7229494  33.3878946  67.2541996  18.1773413  31.9766835  67.2024726
  27.6603202  25.2845619  56.5935114  26.7729057  25.5695270  56.3755309
  28.0757191  25.1239383  55.7462391  31.0117738  25.3092140  60.3089454
  31.7878128  25.7988593  60.5814070  30.2865872  25.7350195  60.7661323
  33.4490296  26.0219760  61.3663394  34.0434787  25.7815496  60.6556703
  33.5216880  25.3026890  61.9936931  15.6687452  39.8653371  61.6806559
  15.5341920  39.1053771  61.1144557  15.2519514  40.5894270  61.2135348
  26.8046415  35.0490294  50.6883134  27.5082265  35.2540297  51.3040790
  26.0809064  35.6167056  50.9532218  27.6344225  30.8000155  56.8085405
  27.5779427  31.2568707  55.9693037  28.1872568  30.0390840  56.6308247
  31.4449031  26.5889887  57.6335524  31.1885965  26.1886523  58.4643732
  30.8201899  27.3033681  57.5085663  35.7561369  29.3285960  60.1406815
  35.1960927  29.3979150  60.9138378  35.1504872  29.1526945  59.4206312
  18.8256578  40.7622688  61.8925002  18.7088962  41.7068120  61.7903692
  18.0049024  40.4596249  62.2810801  28.7133112  35.4872823  52.7381594
  29.5478716  35.0554022  52.5559069  28.5517455  35.3154837  53.6658489
  28.3679005  31.9904937  54.1037934  28.3127808  31.8249208  53.1626378
  27.7425060  32.6980970  54.2600123  13.1571520  27.2273001  67.9299356
  13.8030383  26.7171955  68.4186581  12.9488671  27.9641683  68.5042781
  25.6824912  34.2953848  73.4291497  26.5516071  34.4694501  73.0678131
  25.2031663  35.1148265  73.3067226  21.6775130  21.4913046  53.6823252
  21.6653800  22.4354886  53.8391523  22.5698552  21.3083191  53.3882713
  19.8511092  41.4150949  65.1080930  20.7538339  41.4474560  65.4247425
  19.6248462  40.4851400  65.1227266  21.6064694  40.1681936  61.7691009
  20.6560325  40.1683798  61.6555381  21.9097180  39.4214671  61.2527043
  25.4927250  18.0855822  57.9369189  24.7259645  17.5314309  58.0825871
  25.9037955  18.1577691  58.7983341  17.4969011  24.3740618  72.0274370
  18.3600472  24.0177423  72.2377695  16.9234421  24.0354513  72.7149774
  37.3417388  46.0042474  62.8336771  37.9795798  45.8849222  62.1300111
  37.2238230  46.9523318  62.8924723  34.1507094  45.9569903  62.7698296
  33.8125605  45.8410967  61.8818831  35.0196862  45.5561068  62.7499302
  30.0093910  47.8105379  58.7595187  29.4458775  47.7195316  57.9911475
  29.8946305  46.9905283  59.2397679  34.6326877  47.1104754  68.7284501
  34.6215518  46.7157553  67.8565005  34.7947516  46.3770827  69.3218273
  27.5558341  49.3056571  61.5979407  28.3479633  48.9647395  61.1825707
  27.7954992  49.4151546  62.5181561  35.5893468  51.4776347  54.0709652
  34.9381448  52.0630427  53.6843666  36.3837831  52.0082542  54.1304689
  29.5149095  48.5665484  54.4696786  30.2879971  48.0194471  54.3309662
  29.8674494  49.4309733  54.6811247  31.3534138  49.8941866  67.6763685
  31.0624004  50.7987497  67.5610352  31.9891122  49.9358394  68.3907755
  32.2790345  47.2718715  64.2665045  32.8753917  47.0474737  63.5522008
  32.3365316  46.5303460  64.8690493  31.8515373  44.7258150  52.1015236
  32.1040894  44.2039671  51.3398699  30.9139932  44.5624295  52.2041920
  36.8958656  43.7293928  59.9089979  37.6821745  43.3113351  59.5580396
  37.1597360  44.6340020  60.0771628  37.0668733  49.1666779  54.6078636
  36.4314566  49.2401405  55.3199541  36.7366140  49.7560377  53.9297715
  42.2967083  43.6669161  60.8122958  43.0292255  43.0968378  61.0460787
  41.5406439  43.2790762  61.2529463  31.5711662  46.6286256  54.3039611
  31.4547920  45.9531159  54.9720695  31.6813922  46.1418630  53.4871764
  33.9143203  46.0896403  58.0086300  33.5501410  45.5627024  58.7199222
  34.7710319  45.6994872  57.8352786  39.8192504  37.3790736  65.2717566
  39.4875828  38.2486147  65.0478781  39.2238117  37.0627020  65.9511597
  33.5548690  41.1186303  53.0047649  33.7223092  41.9866539  53.3718120
  33.3645859  41.2813584  52.0808938  36.3124023  49.5803282  64.6713479
  36.0124746  50.4828320  64.5629286  35.9675083  49.3135465  65.5234632
  29.7636505  46.0317078  60.7050184  28.8387001  45.8993293  60.9127875
  30.0120918  46.8111298  61.2020126  39.7121167  42.0985822  62.3510916
  38.8038044  42.0301230  62.0569677  39.6608763  42.5757767  63.1792742
  33.5337911  43.5743960  53.9894316  33.4137536  44.0201011  54.8279796
  32.8390499  43.9229278  53.4307854  27.1245316  45.6750352  61.5393973
  27.2537697  45.9284831  62.4533384  26.4442767  46.2678060  61.2198628
  31.2944803  56.3447602  57.6384447  31.2168833  57.2955427  57.7172927
  30.6906446  55.9993474  58.2959373  33.7862033  43.5175467  70.2945814
  33.0095367  44.0769387  70.2848678  34.4252596  44.0032250  70.8160684
  41.5782813  40.3002260  64.1288790  40.9357193  40.5934793  63.4828585
  41.0737742  40.1855180  64.9341987  39.2322977  44.0465433  54.8174650
  40.1440833  44.2792820  54.6422347  38.7232624  44.6302478  54.2549728
  32.0408405  46.3260921  69.8563781  32.7823089  46.8645965  69.5798604
  31.3345390  46.9527209  70.0135332  37.5163745  48.4690061  68.4535942
  37.9247101  48.0272472  67.7090575  36.7941006  47.8942689  68.7070135
  33.8694815  43.4062668  65.8269499  34.7156010  43.8302081  65.9704148
  33.8093452  42.7496292  66.5208062  37.8392559  49.0291252  62.2088231
  37.2101422  49.1936966  61.5064299  37.4518221  49.4432861  62.9799195
  41.7181791  49.9645690  59.5632595  41.0332829  50.3444591  59.0129628
  41.8025640  50.5741016  60.2964543  38.9732723  47.6105649  66.1627938
  39.1849618  48.2537409  65.4862319  38.9262471  46.7767965  65.6949868
  36.5758952  40.2223469  63.0664510  35.7143431  40.5204723  63.3581248
  36.6021386  40.4393868  62.1345543  33.3920521  48.7665660  59.4738316
  33.8558867  49.0453363  58.6842939  33.1277319  47.8649104  59.2911407
  30.2844602  48.3137141  62.4118079  30.8545959  48.7424410  61.7735564
  30.8752714  48.0319726  63.1102265  32.3289407  44.8888812  56.2827881
  33.0313450  45.3409856  56.7501808  31.9970036  44.2472631  56.9107774
  30.7769769  43.4800569  70.6579091  30.1468429  44.1616850  70.8914488
  30.6705857  43.3683650  69.7132229  26.0714741  43.1472365  61.5845015
  25.2813795  43.4029893  61.1085125  26.5625988  43.9620703  61.6897055
  40.0878551  50.4877604  64.3350296  40.9095994  50.0857791  64.0532977
  40.0840954  50.3845838  65.2866411  28.0229486  43.5116944  58.5428492
  27.2260650  43.6235638  59.0611987  27.7955079  43.8503596  57.6769382
  33.8535154  50.0361647  66.4911006  33.9179587  50.4982055  67.3269178
  33.1446078  49.4059012  66.6193316  24.3552444  43.4002855  64.0160006
  24.6060483  44.2849865  64.2817582  24.8911992  43.2207457  63.2435097
  33.5683172  51.7029755  56.3589987  33.4328847  52.5481291  56.7874834
  34.1092984  51.9049033  55.5955920  30.0550511  37.7821335  73.0204342
  29.6617457  37.2287533  73.6951986  30.8716652  38.0931913  73.4110859
  27.0212569  49.2205193  56.9317912  27.5337090  50.0148443  57.0823476
  27.6735282  48.5231483  56.8651513  28.8307454  52.3370949  59.0140665
  29.0074082  53.2588914  58.8261649  29.6264287  52.0229368  59.4435045
  32.9718472  39.1979214  70.6124598  33.7128186  39.7986367  70.5329061
  33.2036395  38.4556852  70.0542641  28.1159810  44.3835581  68.8902828
  28.0013326  43.4820838  69.1909927  27.2604328  44.6299278  68.5387645
  35.1951648  52.3253321  70.4890329  34.7515502  51.5389700  70.1711233
  35.8568862  52.5132472  69.8234219  29.9538769  53.8549123  65.0151007
  30.5046194  53.7266186  64.2428001  29.1150245  54.1544012  64.6645900
  37.2932886  52.6056121  68.5171730  37.2751362  53.4265002  68.0251999
  38.2152806  52.4810197  68.7421871  33.7505940  50.1200251  69.3595238
  34.2834277  49.3588539  69.1294546  33.2220021  49.8273903  70.1019393
  36.9175635  35.2260317  64.8888880  36.5739905  36.1161958  64.8127991
  37.2854598  35.0361974  64.0258465  24.9861486  47.5493847  57.7077482
  25.8236708  47.9590856  57.4911190  25.1639754  46.6093289  57.6777676
  36.8825918  45.2168928  53.3961315  36.3672542  45.9873532  53.6349703
  36.6103227  44.5434064  54.0194377  34.4673029  40.0618629  58.4546553
  33.6114625  39.6725479  58.2752192  34.8799981  40.1410589  57.5946339
  35.9972176  37.5964972  62.8538113  35.4936971  37.5595107  62.0405919
  36.2902783  38.5057715  62.9134770  32.2415062  37.6803702  61.8604295
  33.1068058  37.4846510  61.5010184  32.3092571  37.4514053  62.7873652
  41.8560192  47.9701283  55.3314489  41.0789635  47.6312442  54.8869651
  42.5351673  47.9753906  54.6569454  36.6712221  43.0896020  55.2221096
  36.3662357  43.4042169  56.0731239  37.6242663  43.1677440  55.2648429
  35.1158653  49.2486243  56.8714050  34.5880015  48.5139003  56.5587288
  34.6146156  50.0260920  56.6254019  40.0951499  47.4435264  61.9881097
  39.4375174  48.1334525  62.0761225  40.8991898  47.8331696  62.3315083
  29.8477381  39.9105910  59.2320662  30.4221133  39.6881091  58.4993855
  30.4348363  39.9794604  59.9849263  38.9056958  45.7979636  60.0385038
  39.4188840  46.4309628  60.5406748  39.5558182  45.1980832  59.6728398
  30.1746968  41.9410371  53.2516547  29.3384280  42.2785057  53.5725822
  30.0351737  41.8059350  52.3143684  32.1500048  36.7847158  57.9595731
  31.4964461  36.4696176  57.3352346  32.1080523  36.1622899  58.6855554
  33.2611253  47.0666454  49.8749023  32.3538315  46.8355707  50.0740172
  33.7582285  46.2704073  50.0623005  36.1679332  55.7763961  52.7945709
  35.4941031  56.0795657  53.4030667  36.5545154  56.5793041  52.4451167
  35.3837789  43.2729092  62.2843379  34.4660350  43.4944039  62.1265067
  35.7997932  43.3475402  61.4255086  36.1672837  44.6720508  57.4146059
  36.9144655  45.1841905  57.1053181  36.4364426  44.3504560  58.2750453
  34.4399487  47.1679048  54.3973013  33.5310706  46.8838081  54.4945483
  34.4694571  47.5878127  53.5376320  39.6718754  50.7785638  58.1664181
  39.2181081  49.9376548  58.2229371  39.0412721  51.4147036  58.5038961
  38.6151674  41.7077624  59.3964848  37.8774430  41.1955010  59.7275091
  38.8678447  41.2678006  58.5848125  38.1151693  52.6162135  59.1013999
  38.4074668  53.1767192  58.3826365  38.6250314  52.9090696  59.8567158
  38.7163301  34.4853876  59.9906618  39.0222178  33.6251239  59.7032533
  39.4415906  35.0771496  59.7905612  25.0087657  44.8884563  58.3788216
  24.8112057  44.2953923  57.6539282  24.4534321  44.5836773  59.0964154
  32.9884381  44.7807669  60.4982809  33.0432991  43.8281505  60.4225285
  32.1775583  44.9367108  60.9824107  34.1375575  48.7087792  51.7361092
  33.6995004  47.9923651  51.2766729  34.8786015  48.9363907  51.1746183
  30.9276741  43.3984729  58.2573188  30.1144606  43.6978899  58.6638380
  31.4235735  43.0040418  58.9747670  33.0785319  53.3942486  60.1907452
  33.0361497  53.6203332  59.2615984  33.9948017  53.1605860  60.3393253
  36.5250952  43.8626553  67.0888081  36.8800340  44.0898026  67.9482547
  37.1723084  44.1944930  66.4665337  42.2548689  46.9844989  57.7937411
  42.1166588  47.1746585  56.8658600  41.8984908  47.7464372  58.2505462
  30.4190815  40.9703084  63.8734423  31.0590195  40.8291843  63.1757386
  29.5868346  40.6837598  63.4973025  31.1951119  50.2705515  59.9869415
  31.9891718  49.7755835  59.7851990  30.4842812  49.7423378  59.6237121
  36.0145964  52.6523610  64.3381783  36.0682986  53.2214547  65.1059499
  35.1460745  52.8225495  63.9735820  27.5033883  44.4148596  56.0629168
  26.5731471  44.3533052  56.2799130  27.5991355  43.8924549  55.2665809
  27.4219432  40.9403409  58.6507409  27.6826249  41.8548743  58.5416570
  28.2436604  40.4727852  58.8004022  28.8944357  42.3541166  65.8206234
  29.5667411  42.1458529  65.1718883  28.0674144  42.1563252  65.3811466
  34.7969929  38.9803107  67.8371895  34.1497844  39.6793057  67.7436371
  35.5670945  39.4139251  68.2048143  34.9734064  46.8183872  65.8968714
  35.9026124  46.9695032  65.7237682  34.5525094  46.9067893  65.0417361
  33.7722395  50.8434537  63.6667252  33.6333481  50.4753321  64.5393190
  32.9836992  51.3582176  63.4951210  34.3670547  55.9443633  55.0092789
  34.5422303  55.4731676  55.8238411  33.6803335  56.5709399  55.2374049
  35.3227610  50.2216139  61.0556090  34.9877443  50.1816909  61.9513740
  34.8231556  49.5560855  60.5826500  29.2971854  45.6283769  66.5808671
  29.1591652  44.8964008  67.1820210  30.2076778  45.5392670  66.2992859
  38.2586802  47.5672174  51.3293150  37.6415973  46.8419002  51.2326202
  37.7903291  48.3281534  50.9860224  31.9254155  45.3403729  66.0692351
  32.6353774  44.6996921  66.0278969  31.8823463  45.5916624  66.9918531
  30.6383089  42.3268947  67.8887990  30.1020446  41.8759685  68.5409586
  30.0499798  42.4614855  67.1458455  28.9331633  59.0932996  61.7832649
  29.1728231  59.7251520  62.4611667  28.0900829  58.7421036  62.0698008
  30.0485348  41.7857598  50.4514454  29.1714814  41.6646399  50.0876700
  30.5243101  40.9943676  50.1993342  39.9158341  50.2410666  67.2212910
  39.0285120  49.9036588  67.3439308  40.4856892  49.5093697  67.4581675
  21.5687488  46.5734758  60.5455961  22.2558528  46.2596488  59.9576976
  21.4135617  47.4776122  60.2723212  26.3722210  41.4624954  64.9740985
  26.2880399  40.8550624  64.2391395  25.5504917  41.9533973  64.9750481
  33.4459494  54.9012118  64.1874153  33.3729666  55.7067090  64.6993457
  33.0036888  55.1004084  63.3622174  33.2349274  54.1383888  57.6976974
  32.4516796  54.6805569  57.7915199  33.9342019  54.6557868  58.0971215
  36.5445924  39.9478518  60.3411180  37.0414624  39.1948480  60.0212250
  35.7732906  39.9842835  59.7754389  35.9058178  54.7998952  66.3432311
  36.6186150  55.4346417  66.2708213  35.4148207  54.8962818  65.5272313
  37.6275705  48.7050205  57.9149603  36.6931984  48.8251668  57.7454307
  37.8052373  47.8022672  57.6509613  33.1280893  42.0895901  60.0682864
  32.7578680  41.5366941  60.7563770  33.6239985  41.4854034  59.5157864
  41.0148256  44.5467524  58.4499637  41.4808708  45.3795516  58.3759940
  41.4655757  44.0812506  59.1544896  30.9570091  52.5493396  67.1637882
  31.6579551  53.1829879  67.3167276  30.4865206  52.8908127  66.4033522
  39.0824487  50.8911346  55.4485789  39.3584331  50.7767940  56.3579663
  38.2128986  50.4928830  55.4097962  38.9864919  36.9148111  62.4890539
  38.0727999  37.1452338  62.6572746  39.4158020  36.9986555  63.3404571
  38.7571377  45.1038003  64.9890433  38.1042828  45.3513911  64.3342885
  39.1351757  44.2902141  64.6552910  35.7178551  55.1397696  59.0918603
  35.9000946  54.3219352  59.5546355  36.5411537  55.3565389  58.6543493
  36.0520717  54.0665882  56.3533651  36.5808483  53.5558336  55.7403813
  36.3148936  53.7508412  57.2179184  34.8058950  45.8457814  71.4756470
  34.1299588  45.7451944  72.1458845  35.6286584  45.6897028  71.9392467
  26.5537810  52.0829751  64.0968985  27.1391246  51.3373439  64.2296889
  26.3562648  52.3933708  64.9805649  29.4076465  55.1180998  59.1131427
  28.7386840  55.6027126  58.6295467  29.2689334  55.3650219  60.0274806
  21.1455464  44.6535351  62.8173428  21.1839564  44.1198942  63.6110546
  20.6395757  44.1270557  62.1984405  33.5481733  57.1524742  65.7114086
  34.1000041  57.3156363  66.4763171  33.8887927  57.7429180  65.0394111
  28.5246227  39.4999892  66.3135970  28.5887553  40.3614723  65.9013368
  28.4613347  38.8873893  65.5808329  27.9998499  41.5723024  69.9609005
  28.6270538  41.1900101  70.5746529  27.1426418  41.3537226  70.3264697
  24.7764042  43.3799453  55.8927359  25.0717483  42.4710132  55.8394413
  23.8752078  43.3587193  55.5708362  36.6850121  55.1006717  62.6977768
  36.5601260  54.2996457  62.1888713  37.3429212  55.5952911  62.2091738
  28.3058289  41.4555450  61.8754908  27.5844875  42.0691418  61.7362381
  29.0951545  41.9913215  61.7971554  31.1084602  38.7909876  68.1495560
  31.6319004  39.0372173  68.9121869  30.8896936  39.6229911  67.7298697
  26.5051883  41.0613551  56.0166685  26.1764590  40.1810930  55.8341791
  26.8591254  41.0061220  56.9043074  35.7531462  52.6968454  60.5261670
  35.6056425  51.7685161  60.7069240  36.5784956  52.7188544  60.0418745
  29.6193707  41.3486521  56.3842162  29.9589779  41.8772442  55.6620771
  30.0665827  41.6866927  57.1600729  39.3565584  53.5197012  61.6126543
  40.2812132  53.3139874  61.4750994  39.1880888  53.2713414  62.5215884
  32.3137147  39.7323571  65.8345230  31.9733968  38.9331385  66.2365910
  31.6076154  40.0325282  65.2622064  32.9653619  36.8172884  64.2872553
  33.7879689  36.3433362  64.1651444  33.2091683  37.5963368  64.7871240
  31.6061854  39.8461142  54.5835455  32.3270216  40.2242395  54.0799172
  30.9827158  40.5650019  54.6870433  35.7492977  40.5506291  55.5193787
  35.9656591  41.4330929  55.2182616  35.2687044  40.1592505  54.7899429
  30.4892198  43.5092005  62.0964532  30.3436779  43.8232308  62.9888814
  30.0117402  44.1276905  61.5435431  32.3488581  40.4994552  62.1445422
  32.3350150  39.6035646  61.8077719  33.0661009  40.5065216  62.7783708
  34.2014712  40.9331893  64.1898549  33.9432489  41.8548963  64.1882879
  33.6699752  40.5362327  64.8799013  39.1460900  54.0382680  56.9688634
  39.3197778  53.4729102  56.2162487  39.6389792  54.8383575  56.7868124
  24.9637860  46.0497349  65.0352193  24.4191328  46.8257157  65.1672468
  25.8417210  46.3968153  64.8771315  31.7525477  39.3808933  57.4132992
  31.8741388  38.4525579  57.6123879  31.4627519  39.3947619  56.5011307
  34.6216667  37.0663843  60.5499712  34.6438364  37.1303176  59.5951691
  35.0384726  36.2268352  60.7440218  45.0000292  46.8019103  58.5878934
  45.4431438  46.0526428  58.1898057  44.1226802  46.7929239  58.2052666
  40.1336073  53.3549444  54.0685533  40.8286977  53.9756137  54.2872847
  40.4759223  52.5044795  54.3437911  25.7503882  45.1767245  67.9282350
  25.0085618  45.3249881  68.5146980  25.4296626  45.4375511  67.0649099
  42.0327496  50.8049150  55.5972863  42.5578820  51.1436423  54.8722183
  41.9449849  49.8696165  55.4135998  33.6947545  54.7183223  67.7262740
  34.0034671  54.4732370  68.5985440  34.4923027  54.9229862  67.2381610
  33.7168157  56.8721133  59.9568117  33.2773147  56.3797512  60.6500973
  34.4676274  56.3294101  59.7160192  26.1960496  53.0632674  59.9592745
  27.0218516  52.7636446  59.5791388  25.8454548  52.2940296  60.4082533
  31.1642029  52.4159142  62.0290418  30.5422038  51.7529847  61.7292646
  31.8346896  52.4420274  61.3464066  24.3969101  50.9819000  60.9181678
  23.5601009  50.5541175  60.7365680  24.3692746  51.1751444  61.8552469
  31.2366556  40.8940930  71.6222924  31.2854712  41.7703053  71.2400694
  31.7789071  40.3518323  71.0494568  30.7255536  50.9663065  55.5048879
  30.8743656  51.6498530  54.8515552  31.5321979  50.9468156  56.0198335
  33.4665845  41.6472303  68.3769283  32.5969154  41.9405869  68.1051871
  33.7025325  42.2312748  69.0976547  28.4808169  46.9928243  56.5109948
  28.2354211  46.0890573  56.7090158  28.6504083  46.9945394  55.5689426
  36.1704879  37.8651919  65.8934703  36.6886823  38.6012946  65.5681192
  35.8160011  38.1715913  66.7281462  27.7503816  42.7256601  54.0096109
  27.0573061  42.8000956  53.3536145  27.5055568  41.9616944  54.5317626
  36.4217473  34.2852202  61.4135600  36.7019227  33.6175391  62.0396026
  37.2068080  34.4781298  60.9010264  34.2250941  53.4611196  52.9760626
  33.6524908  54.0801383  52.5231098  34.7983735  54.0110558  53.5100548
  40.2926331  42.7069836  65.1607175  41.2443754  42.8067934  65.1819399
  40.1229782  41.9148105  65.6705259  38.3140711  39.7925419  65.3466576
  37.7190643  40.0730432  64.6513065  38.0290407  40.2819320  66.1183317
  37.4448201  53.7448346  54.1069209  38.3778874  53.6793908  54.3102084
  37.3571414  54.5804613  53.6483741  40.0736218  53.0614216  51.0673156
  39.9949849  52.7274080  51.9608914  40.8945885  53.5535984  51.0664628
  34.6097740  44.7972009  50.3176679  35.5556845  44.6678217  50.3865097
  34.2311985  44.0586671  50.7946107  40.5819624  36.4628015  60.2803571
  40.3844446  36.1543103  61.1646903  41.1919330  37.1889654  60.4101500
  34.4936432  48.8489755  71.7777336  35.4139442  49.0268354  71.9717382
  34.4586015  47.9045800  71.6257035  32.7940657  42.7221985  50.2531564
  31.8872112  42.4255098  50.3294278  33.0716638  42.4251803  49.3865850
  23.7118597  44.0428348  60.7030610  23.3921382  43.1893657  60.4104984
  23.1652026  44.2576927  61.4588578  27.4898505  46.7590789  64.4200117
  27.7084515  47.6907897  64.4388151  27.9024279  46.3998764  65.2054921
  34.4102723  37.2658875  56.4075805  33.6003451  36.9205960  56.7831051
  35.0987140  36.9566418  56.9963417  36.3393271  36.3436922  58.0300102
  36.8924310  36.7632375  58.6890125  36.5763357  35.4172670  58.0723058
  32.3626370  42.3323995  73.8102866  32.2623097  43.2818352  73.7414957
  32.1447912  42.0042234  72.9378936  31.5639442  39.5808920  50.3943543
  32.4258606  39.9063819  50.6539361  31.7489786  38.7940416  49.8816609
  23.5806857  47.6631260  62.6723732  22.8870329  47.2485213  62.1593686
  24.3279848  47.7051796  62.0757151  39.7172078  38.4537447  57.5378766
  39.1370747  39.1122251  57.1556819  39.4508011  37.6314791  57.1266184
  38.1675644  37.8542504  59.7400086  38.6675423  37.9659039  58.9314405
  38.8111252  37.5503557  60.3800895  32.2257640  45.7621134  72.6267927
  31.7424722  46.5621494  72.8331816  32.3118579  45.7729079  71.6735371
  25.4943600  47.5949514  60.5489747  25.4714288  47.6937201  59.5971630
  25.8044236  48.4414665  60.8706913  28.1530978  49.6525669  64.6636361
  29.1074231  49.6209611  64.5966293  27.9543501  49.1916292  65.4786587
  28.7430360  48.2226785  67.2307159  29.5623249  48.7170863  67.2541996
  29.0167168  47.3058753  67.2024726  38.4996956  40.6137537  56.5935114
  37.6122811  40.8987188  56.3755309  38.9150945  40.4531300  55.7462391
  41.8511492  40.6384058  60.3089454  42.6271882  41.1280511  60.5814070
  41.1259626  41.0642112  60.7661323  44.2884051  41.3511677  61.3663394
  44.8828542  41.1107413  60.6556703  44.3610635  40.6318808  61.9936931
  26.5081207  55.1945288  61.6806559  26.3735674  54.4345689  61.1144557
  26.0913269  55.9186188  61.2135348  37.6440170  50.3782212  50.6883134
  38.3476020  50.5832214  51.3040790  36.9202818  50.9458974  50.9532218
  38.4737980  46.1292073  56.8085405  38.4173181  46.5860624  55.9693037
  39.0266322  45.3682758  56.6308247  42.2842786  41.9181805  57.6335524
  42.0279720  41.5178441  58.4643732  41.6595654  42.6325599  57.5085663
  46.5955124  44.6577878  60.1406815  46.0354682  44.7271067  60.9138378
  45.9898627  44.4818863  59.4206312  29.6650332  56.0914605  61.8925002
  29.5482717  57.0360038  61.7903692  28.8442779  55.7888167  62.2810801
  39.5526867  50.8164741  52.7381594  40.3872471  50.3845939  52.5559069
  39.3911210  50.6446755  53.6658489  39.2072759  47.3196854  54.1037934
  39.1521563  47.1541126  53.1626378  38.5818814  48.0272887  54.2600123
  23.9965274  42.5564919  67.9299356  24.6424138  42.0463873  68.4186581
  23.7882425  43.2933600  68.5042781  32.5168885  36.8204963  53.6823252
  32.5047554  37.7646803  53.8391523  33.4092306  36.6375109  53.3882713
  30.6904847  56.7442867  65.1080930  31.5932093  56.7766477  65.4247425
  30.4642217  55.8143318  65.1227266  32.4458449  55.4973854  61.7691009
  31.4954080  55.4975715  61.6555381  32.7490935  54.7506588  61.2527043
  36.3321004  33.4147740  57.9369189  35.5653400  32.8606227  58.0825871
  36.7431709  33.4869609  58.7983341  28.3362765  39.7032536  72.0274370
  29.1994227  39.3469341  72.2377695  27.7628176  39.3646431  72.7149774
  40.8487664  63.1397297  58.7595187  40.2852529  63.0487234  57.9911475
  40.7340059  62.3197201  59.2397679  38.3952096  64.6348488  61.5979407
  39.1873388  64.2939313  61.1825707  38.6348746  64.7443463  62.5181561
  46.4287223  66.8068264  54.0709652  45.7775203  67.3922345  53.6843666
  47.2231586  67.3374459  54.1304689  40.3542850  63.8957401  54.4696786
  41.1273726  63.3486389  54.3309662  40.7068249  64.7601651  54.6811247
  42.6909128  60.0550068  52.1015236  42.9434648  59.5331589  51.3398699
  41.7533687  59.8916213  52.2041920  47.9062488  64.4958696  54.6078636
  47.2708321  64.5693323  55.3199541  47.5759894  65.0852295  53.9297715
  42.4105416  61.9578174  54.3039611  42.2941675  61.2823077  54.9720695
  42.5207676  61.4710547  53.4871764  44.3942444  56.4478220  53.0047649
  44.5616847  57.3158457  53.3718120  44.2039613  56.6105502  52.0808938
  44.3731665  58.9035878  53.9894316  44.2531290  59.3492929  54.8279796
  43.6784254  59.2521196  53.4307854  42.1338557  71.6739520  57.6384447
  42.0562587  72.6247345  57.7172927  41.5300201  71.3285392  58.2959373
  50.0716731  59.3757351  54.8174650  50.9834588  59.6084738  54.6422347
  49.5626378  59.9594395  54.2549728  43.1683162  60.2180730  56.2827881
  43.8707205  60.6701774  56.7501808  42.8363790  59.5764549  56.9107774
  36.9108496  58.4764283  61.5845015  36.1207550  58.7321811  61.1085125
  37.4019743  59.2912620  61.6897055  38.8623241  58.8408862  58.5428492
  38.0654404  58.9527556  59.0611987  38.6348833  59.1795514  57.6769382
  35.1946199  58.7294773  64.0160006  35.4454237  59.6141783  64.2817582
  35.7305747  58.5499375  63.2435097  44.4076926  67.0321673  56.3589987
  44.2722601  67.8773208  56.7874834  44.9486739  67.2340950  55.5955920
  37.8606324  64.5497111  56.9317912  38.3730844  65.3440361  57.0823476
  38.5129036  63.8523401  56.8651513  39.6701208  67.6662867  59.0140665
  39.8467837  68.5880832  58.8261649  40.4658042  67.3521286  59.4435045
  35.8255240  62.8785765  57.7077482  36.6630462  63.2882773  57.4911190
  36.0033508  61.9385207  57.6777676  47.7219673  60.5460846  53.3961315
  47.2066296  61.3165450  53.6349703  47.4496981  59.8725982  54.0194377
  45.3066784  55.3910546  58.4546553  44.4508380  55.0017397  58.2752192
  45.7193735  55.4702507  57.5946339  52.6953947  63.2993200  55.3314489
  51.9183389  62.9604360  54.8869651  53.3745428  63.3045823  54.6569454
  47.5105976  58.4187938  55.2221096  47.2056111  58.7334087  56.0731239
  48.4636418  58.4969358  55.2648429  45.9552408  64.5778161  56.8714050
  45.4273769  63.8430921  56.5587288  45.4539910  65.3552837  56.6254019
  40.6871135  55.2397827  59.2320662  41.2614887  55.0173009  58.4993855
  41.2742118  55.3086522  59.9849263  41.0140722  57.2702288  53.2516547
  40.1778035  57.6076975  53.5725822  40.8745492  57.1351268  52.3143684
  42.9893803  52.1139076  57.9595731  42.3358215  51.7988093  57.3352346
  42.9474277  51.4914817  58.6855554  44.1005008  62.3958371  49.8749023
  43.1932069  62.1647625  50.0740172  44.5976040  61.5995990  50.0623005
  47.0073087  71.1055878  52.7945709  46.3334785  71.4087575  53.4030667
  47.3938909  71.9084959  52.4451167  45.2793241  62.4970966  54.3973013
  44.3704460  62.2129999  54.4945483  45.3088325  62.9170045  53.5376320
  50.5112509  66.1077556  58.1664181  50.0574836  65.2668465  58.2229371
  49.8806475  66.7438954  58.5038961  49.4545428  57.0369542  59.3964848
  48.7168185  56.5246928  59.7275091  49.7072202  56.5969923  58.5848125
  35.8481412  60.2176480  58.3788216  35.6505811  59.6245841  57.6539282
  35.2928076  59.9128690  59.0964154  44.9769329  64.0379710  51.7361092
  44.5388759  63.3215569  51.2766729  45.7179770  64.2655825  51.1746183
  41.7670495  58.7276646  58.2573188  40.9538361  59.0270817  58.6638380
  42.2629489  58.3332335  58.9747670  53.0942444  62.3136907  57.7937411
  52.9560342  62.5038503  56.8658600  52.7378663  63.0756290  58.2505462
  42.0344874  65.5997432  59.9869415  42.8285472  65.1047753  59.7851990
  41.3236566  65.0715296  59.6237121  38.3427637  59.7440514  56.0629168
  37.4125225  59.6824970  56.2799130  38.4385109  59.2216467  55.2665809
  38.2613186  56.2695327  58.6507409  38.5220004  57.1840660  58.5416570
  39.0830359  55.8019770  58.8004022  45.2064302  71.2735551  55.0092789
  45.3816057  70.8023594  55.8238411  44.5197090  71.9001317  55.2374049
  49.0980557  62.8964091  51.3293150  48.4809727  62.1710920  51.2326202
  48.6297045  63.6573452  50.9860224  40.8879103  57.1149516  50.4514454
  40.0108569  56.9938316  50.0876700  41.3636856  56.3235594  50.1993342
  32.4081243  61.9026675  60.5455961  33.0952282  61.5888405  59.9576976
  32.2529371  62.8068040  60.2723212  44.0743029  69.4675806  57.6976974
  43.2910550  70.0097486  57.7915199  44.7735774  69.9849786  58.0971215
  51.8542011  59.8759442  58.4499637  52.3202463  60.7087434  58.3759940
  52.3049511  59.4104424  59.1544896  49.9218242  66.2203263  55.4485789
  50.1978086  66.1059858  56.3579663  49.0522741  65.8220748  55.4097962
  46.5572306  70.4689614  59.0918603  46.7394700  69.6511270  59.5546355
  47.3805292  70.6857306  58.6543493  46.8914471  69.3957799  56.3533651
  47.4202238  68.8850254  55.7403813  47.1542691  69.0800330  57.2179184
  37.3931564  67.4121669  64.0968985  37.9785001  66.6665356  64.2296889
  37.1956403  67.7225625  64.9805649  40.2470219  70.4472916  59.1131427
  39.5780595  70.9319044  58.6295467  40.1083089  70.6942136  60.0274806
  31.9849219  59.9827269  62.8173428  32.0233318  59.4490859  63.6110546
  31.4789512  59.4562474  62.1984405  35.6157796  58.7091371  55.8927359
  35.9111237  57.8002049  55.8394413  34.7145832  58.6879110  55.5708362
  37.3445638  56.3905469  56.0166685  37.0158344  55.5102848  55.8341791
  37.6985009  56.3353137  56.9043074  40.4587461  56.6778438  56.3842162
  40.7983534  57.2064360  55.6620771  40.9059582  57.0158845  57.1600729
  42.4455608  55.1753060  54.5835455  43.1663971  55.5534313  54.0799172
  41.8220912  55.8941937  54.6870433  46.5886731  55.8798209  55.5193787
  46.8050346  56.7622847  55.2182616  46.1080798  55.4884422  54.7899429
  49.9854655  69.3674597  56.9688634  50.1591532  68.8021020  56.2162487
  50.4783546  70.1675492  56.7868124  35.8031615  61.3789267  65.0352193
  35.2585083  62.1549075  65.1672468  36.6810965  61.7260071  64.8771315
  42.5919231  54.7100850  57.4132992  42.7135143  53.7817497  57.6123879
  42.3021274  54.7239536  56.5011307  55.8394046  62.1311020  58.5878934
  56.2825192  61.3818346  58.1898057  54.9620556  62.1221157  58.2052666
  50.9729827  68.6841362  54.0685533  51.6680732  69.3048055  54.2872847
  51.3152977  67.8336713  54.3437911  52.8721250  66.1341067  55.5972863
  53.3972575  66.4728340  54.8722183  52.7843603  65.1988083  55.4135998
  44.5561911  72.2013051  59.9568117  44.1166902  71.7089429  60.6500973
  45.3070028  71.6586018  59.7160192  37.0354250  68.3924592  59.9592745
  37.8612270  68.0928363  59.5791388  36.6848302  67.6232214  60.4082533
  35.2362855  66.3110918  60.9181678  34.3994764  65.8833092  60.7365680
  35.2086501  66.5043361  61.8552469  41.5649290  66.2954983  55.5048879
  41.7137411  66.9790448  54.8515552  42.3715734  66.2760073  56.0198335
  39.3201923  62.3220161  56.5109948  39.0747965  61.4182491  56.7090158
  39.4897838  62.3237311  55.5689426  38.5897571  58.0548518  54.0096109
  37.8966816  58.1292873  53.3536145  38.3449323  57.2908862  54.5317626
  45.0644696  68.7903114  52.9760626  44.4918663  69.4093301  52.5231098
  45.6377489  69.3402475  53.5100548  48.2841956  69.0740264  54.1069209
  49.2172629  69.0085825  54.3102084  48.1965168  69.9096531  53.6483741
  50.9129972  68.3906134  51.0673156  50.8343604  68.0565998  51.9608914
  51.7339639  68.8827902  51.0664628  45.4491494  60.1263926  50.3176679
  46.3950599  59.9970134  50.3865097  45.0705739  59.3878588  50.7946107
  43.6334411  58.0513903  50.2531564  42.7265867  57.7547015  50.3294278
  43.9110392  57.7543721  49.3865850  34.5512352  59.3720266  60.7030610
  34.2315136  58.5185574  60.4104984  34.0045780  59.5868844  61.4588578
  45.2496477  52.5950792  56.4075805  44.4397206  52.2497877  56.7831051
  45.9380894  52.2858336  56.9963417  47.1787025  51.6728839  58.0300102
  47.7318064  52.0924293  58.6890125  47.4157112  50.7464587  58.0723058
  42.4033196  54.9100838  50.3943543  43.2652360  55.2355736  50.6539361
  42.5883540  54.1232334  49.8816609  34.4200612  62.9923178  62.6723732
  33.7264083  62.5777130  62.1593686  35.1673603  63.0343714  62.0757151
  36.3337354  62.9241431  60.5489747  36.3108042  63.0229119  59.5971630
  36.6437991  63.7706582  60.8706913  49.3390711  55.9429455  56.5935114
  48.4516566  56.2279105  56.3755309  49.7544700  55.7823218  55.7462391
  37.3474961  70.5237206  61.6806559  37.2129429  69.7637607  61.1144557
  36.9307023  71.2478106  61.2135348  48.4833924  65.7074129  50.6883134
  49.1869774  65.9124132  51.3040790  47.7596573  66.2750891  50.9532218
  49.3131734  61.4583991  56.8085405  49.2566936  61.9152542  55.9693037
  49.8660077  60.6974675  56.6308247  40.5044087  71.4206523  61.8925002
  40.3876471  72.3651955  61.7903692  39.6836533  71.1180084  62.2810801
  50.3920621  66.1456659  52.7381594  51.2266225  65.7137857  52.5559069
  50.2304964  65.9738672  53.6658489  50.0466514  62.6488772  54.1037934
  49.9915317  62.4833043  53.1626378  49.4212569  63.3564805  54.2600123
  34.8359029  57.8856836  67.9299356  35.4817892  57.3755790  68.4186581
  34.6276180  58.6225518  68.5042781  43.3562639  52.1496881  53.6823252
  43.3441309  53.0938721  53.8391523  44.2486061  51.9667026  53.3882713
  47.1714759  48.7439658  57.9369189  46.4047154  48.1898144  58.0825871
  47.5825464  48.8161526  58.7983341  51.6881419  78.4689214  58.7595187
  51.1246284  78.3779151  57.9911475  51.5733814  77.6489119  59.2397679
  49.2345850  79.9640406  61.5979407  50.0267142  79.6231231  61.1825707
  49.4742501  80.0735381  62.5181561  57.2680977  82.1360182  54.0709652
  56.6168957  82.7214262  53.6843666  58.0625340  82.6666377  54.1304689
  51.1936604  79.2249319  54.4696786  51.9667480  78.6778306  54.3309662
  51.5462003  80.0893568  54.6811247  53.0321647  80.5525701  67.6763685
  52.7411513  81.4571332  67.5610352  53.6678631  80.5942229  68.3907755
  53.9577854  77.9302550  64.2665045  54.5541426  77.7058572  63.5522008
  54.0152825  77.1887295  64.8690493  53.5302882  75.3841985  52.1015236
  53.7828403  74.8623507  51.3398699  52.5927441  75.2208131  52.2041920
  58.5746165  74.3877764  59.9089979  59.3609254  73.9697187  59.5580396
  58.8384869  75.2923856  60.0771628  58.7456242  79.8250614  54.6078636
  58.1102075  79.8985240  55.3199541  58.4153649  80.4144213  53.9297715
  53.2499171  77.2870091  54.3039611  53.1335429  76.6114995  54.9720695
  53.3601431  76.8002465  53.4871764  55.5930712  76.7480238  58.0086300
  55.2288919  76.2210859  58.7199222  56.4497828  76.3578707  57.8352786
  55.2336199  71.7770138  53.0047649  55.4010601  72.6450374  53.3718120
  55.0433368  71.9397420  52.0808938  57.9911532  80.2387117  64.6713479
  57.6912255  81.1412156  64.5629286  57.6462592  79.9719300  65.5234632
  51.4424014  76.6900914  60.7050184  50.5174510  76.5577128  60.9127875
  51.6908427  77.4695133  61.2020126  55.2125420  74.2327796  53.9894316
  55.0925045  74.6784846  54.8279796  54.5178008  74.5813113  53.4307854
  52.9732312  87.0031437  57.6384447  52.8956342  87.9539262  57.7172927
  52.3693955  86.6577310  58.2959373  59.5180068  79.6875087  62.2088231
  58.8888931  79.8520801  61.5064299  59.1305730  80.1016697  62.9799195
  63.3969300  80.6229525  59.5632595  62.7120338  81.0028426  59.0129628
  63.4813149  81.2324852  60.2964543  60.6520232  78.2689484  66.1627938
  60.8637127  78.9121244  65.4862319  60.6049980  77.4351801  65.6949868
  58.2546461  70.8807305  63.0664510  57.3930940  71.1788558  63.3581248
  58.2808895  71.0977704  62.1345543  55.0708030  79.4249495  59.4738316
  55.5346376  79.7037198  58.6842939  54.8064828  78.5232940  59.2911407
  51.9632111  78.9720977  62.4118079  52.5333468  79.4008245  61.7735564
  52.5540223  78.6903561  63.1102265  54.0076916  75.5472648  56.2827881
  54.7100959  75.9993691  56.7501808  53.6757545  74.9056466  56.9107774
  61.7666060  81.1461439  64.3350296  62.5883503  80.7441627  64.0532977
  61.7628463  81.0429674  65.2866411  49.7016995  74.1700780  58.5428492
  48.9048159  74.2819474  59.0611987  49.4742588  74.5087432  57.6769382
  55.5322663  80.6945483  66.4911006  55.5967096  81.1565890  67.3269178
  54.8233587  80.0642848  66.6193316  69.8572053  77.4900188  60.6835267
  69.1035761  76.9207586  60.5279272  69.9919594  77.4562852  61.6305902
  55.2470681  82.3613590  56.3589987  55.1116356  83.2065126  56.7874834
  55.7880493  82.5632868  55.5955920  48.7000078  79.8789028  56.9317912
  49.2124599  80.6732279  57.0823476  49.3522791  79.1815319  56.8651513
  50.5094963  82.9954785  59.0140665  50.6861591  83.9172749  58.8261649
  51.3051796  82.6813204  59.4435045  56.8739157  82.9837157  70.4890329
  56.4303011  82.1973535  70.1711233  57.5356371  83.1716307  69.8234219
  51.6326278  84.5132958  65.0151007  52.1833703  84.3850022  64.2428001
  50.7937754  84.8127847  64.6645900  58.9720395  83.2639957  68.5171730
  58.9538871  84.0848838  68.0251999  59.8940315  83.1394032  68.7421871
  55.4293449  80.7784086  69.3595238  55.9621786  80.0172374  69.1294546
  54.9007530  80.4857738  70.1019393  46.6648995  78.2077683  57.7077482
  47.5024217  78.6174691  57.4911190  46.8427263  77.2677125  57.6777676
  58.5613427  75.8752763  53.3961315  58.0460050  76.6457368  53.6349703
  58.2890735  75.2017899  54.0194377  56.1460538  70.7202464  58.4546553
  55.2902134  70.3309314  58.2752192  56.5587490  70.7994425  57.5946339
  63.5347701  78.6285118  55.3314489  62.7577144  78.2896277  54.8869651
  64.2139182  78.6337741  54.6569454  58.3499730  73.7479855  55.2221096
  58.0449866  74.0626004  56.0731239  59.3030172  73.8261275  55.2648429
  56.7946162  79.9070079  56.8714050  56.2667524  79.1722838  56.5587288
  56.2933665  80.6844755  56.6254019  61.7739008  78.1019099  61.9881097
  61.1162683  78.7918361  62.0761225  62.5779407  78.4915531  62.3315083
  51.5264890  70.5689745  59.2320662  52.1008642  70.3464926  58.4993855
  52.1135872  70.6378439  59.9849263  60.5844467  76.4563472  60.0385038
  61.0976349  77.0893464  60.5406748  61.2345691  75.8564667  59.6728398
  51.8534477  72.5994206  53.2516547  51.0171789  72.9368892  53.5725822
  51.7139246  72.4643186  52.3143684  53.8287557  67.4430994  57.9595731
  53.1751970  67.1280011  57.3352346  53.7868032  66.8206734  58.6855554
  54.9398762  77.7250289  49.8749023  54.0325824  77.4939542  50.0740172
  55.4369794  76.9287908  50.0623005  57.8466841  86.4347796  52.7945709
  57.1728540  86.7379493  53.4030667  58.2332663  87.2376876  52.4451167
  57.8460346  75.3304343  57.4146059  58.5932164  75.8425740  57.1053181
  58.1151935  75.0088396  58.2750453  56.1186996  77.8262884  54.3973013
  55.2098215  77.5421917  54.4945483  56.1482079  78.2461962  53.5376320
  61.3506263  81.4369473  58.1664181  60.8968590  80.5960383  58.2229371
  60.7200230  82.0730872  58.5038961  59.7939202  83.2745970  59.1013999
  60.0862177  83.8351027  58.3826365  60.3037823  83.5674531  59.8567158
  46.6875166  75.5468398  58.3788216  46.4899566  74.9537759  57.6539282
  46.1321830  75.2420608  59.0964154  54.6671890  75.4391504  60.4982809
  54.7220500  74.4865341  60.4225285  53.8563092  75.5950943  60.9824107
  55.8163083  79.3671627  51.7361092  55.3782513  78.6507486  51.2766729
  56.5573524  79.5947742  51.1746183  52.6064250  74.0568564  58.2573188
  51.7932115  74.3562735  58.6638380  53.1023244  73.6624253  58.9747670
  54.7572828  84.0526321  60.1907452  54.7149006  84.2787167  59.2615984
  55.6735526  83.8189696  60.3393253  63.9336198  77.6428824  57.7937411
  63.7954097  77.8330420  56.8658600  63.5772417  78.4048207  58.2505462
  52.8738628  80.9289350  59.9869415  53.6679227  80.4339670  59.7851990
  52.1630321  80.4007213  59.6237121  57.6933473  83.3107446  64.3381783
  57.7470495  83.8798382  65.1059499  56.8248254  83.4809331  63.9735820
  49.1821392  75.0732432  56.0629168  48.2518980  75.0116887  56.2799130
  49.2778864  74.5508385  55.2665809  49.1006941  71.5987245  58.6507409
  49.3613758  72.5132578  58.5416570  49.9224113  71.1311687  58.8004022
  64.8221127  79.7529052  65.3381567  65.0157018  80.6574863  65.5840842
  64.7221746  79.2936471  66.1720152  55.4509904  81.5018372  63.6667252
  55.3120990  81.1337156  64.5393190  54.6624501  82.0166011  63.4951210
  56.0458056  86.6027469  55.0092789  56.2209812  86.1315512  55.8238411
  55.3590844  87.2293235  55.2374049  57.0015119  80.8799975  61.0556090
  56.6664952  80.8400745  61.9513740  56.5019065  80.2144691  60.5826500
  59.9374311  78.2256009  51.3293150  59.3203482  77.5002837  51.2326202
  59.4690800  78.9865369  50.9860224  61.5928443  82.9354917  68.9898930
  61.5340989  82.2514138  68.3229513  61.9947961  83.6773907  68.5379556
  50.6119142  89.7516831  61.7832649  50.8515740  90.3835355  62.4611667
  49.7688338  89.4004871  62.0698008  51.7272857  72.4441433  50.4514454
  50.8502323  72.3230234  50.0876700  52.2030610  71.6527512  50.1993342
  61.5945850  80.8994501  67.2212910  60.7072629  80.5620423  67.3439308
  62.1644401  80.1677533  67.4581675  43.2474997  77.2318593  60.5455961
  43.9346037  76.9180323  59.9576976  43.0923126  78.1359958  60.2723212
  55.1247003  85.5595954  64.1874153  55.0517175  86.3650925  64.6993457
  54.6824397  85.7587920  63.3622174  54.9136783  84.7967724  57.6976974
  54.1304305  85.3389404  57.7915199  55.6129528  85.3141703  58.0971215
  58.2233433  70.6062353  60.3411180  58.7202133  69.8532316  60.0212250
  57.4520415  70.6426670  59.7754389  57.5845687  85.4582788  66.3432311
  58.2973659  86.0930253  66.2708213  57.0935716  85.5546654  65.5272313
  59.3063214  79.3634040  57.9149603  58.3719493  79.4835503  57.7454307
  59.4839882  78.4606507  57.6509613  52.6357600  83.2077231  67.1637882
  53.3367060  83.8413714  67.3167276  52.1652715  83.5491963  66.4033522
  60.7611996  81.5495181  55.4485789  61.0371840  81.4351776  56.3579663
  59.8916495  81.1512666  55.4097962  57.3966060  85.7981532  59.0918603
  57.5788455  84.9803188  59.5546355  58.2199046  86.0149224  58.6543493
  57.7308226  84.7249717  56.3533651  58.2595992  84.2142172  55.7403813
  57.9936445  84.4092247  57.2179184  48.2325319  82.7413586  64.0968985
  48.8178755  81.9957274  64.2296889  48.0350157  83.0517543  64.9805649
  51.0863974  85.7764834  59.1131427  50.4174349  86.2610961  58.6295467
  50.9476843  86.0234054  60.0274806  55.2269242  87.8108577  65.7114086
  55.7787550  87.9740199  66.4763171  55.5675436  88.4013015  65.0394111
  60.0780117  82.6369835  71.5662740  60.6220021  83.2499793  71.0717695
  59.4966962  83.1949413  72.0829753  46.4551551  74.0383289  55.8927359
  46.7504992  73.1293967  55.8394413  45.5539587  74.0171028  55.5708362
  58.3637630  85.7590553  62.6977768  58.2388769  84.9580293  62.1888713
  59.0216721  86.2536746  62.2091738  60.4272538  83.5599573  64.3257318
  59.4802874  83.4404924  64.2535645  60.7755311  82.6722071  64.4083579
  48.1839392  71.7197386  56.0166685  47.8552099  70.8394765  55.8341791
  48.5378763  71.6645055  56.9043074  57.4318971  83.3552289  60.5261670
  57.2843934  82.4268996  60.7069240  58.2572465  83.3772380  60.0418745
  51.2981216  72.0070356  56.3842162  51.6377288  72.5356277  55.6620771
  51.7453336  72.3450762  57.1600729  61.0353093  84.1780848  61.6126543
  61.9599641  83.9723709  61.4750994  60.8668397  83.9297249  62.5215884
  53.2849363  70.5044978  54.5835455  54.0057725  70.8826230  54.0799172
  52.6614667  71.2233854  54.6870433  60.8248409  84.6966515  56.9688634
  60.9985287  84.1312938  56.2162487  61.3177301  85.4967410  56.7868124
  53.4312986  70.0392768  57.4132992  53.5528897  69.1109414  57.6123879
  53.1415028  70.0531454  56.5011307  61.8123582  84.0133280  54.0685533
  62.5074486  84.6339972  54.2872847  62.1546732  83.1628631  54.3437911
  63.7115005  81.4632985  55.5972863  64.2366329  81.8020258  54.8722183
  63.6237358  80.5280000  55.4135998  55.3735054  85.3767059  67.7262740
  55.6822180  85.1316206  68.5985440  56.1710536  85.5813697  67.2381610
  55.3955666  87.5304968  59.9568117  54.9560656  87.0381347  60.6500973
  56.1463783  86.9877936  59.7160192  47.8748005  83.7216509  59.9592745
  48.7006025  83.4220281  59.5791388  47.5242057  82.9524132  60.4082533
  52.8429538  83.0742977  62.0290418  52.2209547  82.4113682  61.7292646
  53.5134405  83.1004109  61.3464066  46.0756610  81.6402836  60.9181678
  45.2388518  81.2125010  60.7365680  46.0480255  81.8335279  61.8552469
  63.4008911  82.0965889  70.9024061  62.6104455  82.0790028  70.3628561
  63.1642266  82.6354182  71.6573098  63.5206786  78.9458355  68.2156790
  63.5704791  78.7808363  69.1572313  63.4120709  78.0785614  67.8254671
  52.4043045  81.6246901  55.5048879  52.5531165  82.3082365  54.8515552
  53.2109488  81.6051991  56.0198335  65.0224983  81.3655297  68.4598811
  64.7309791  81.7285277  69.2962272  64.4097114  80.6522305  68.2812144
  63.2712171  76.4887911  66.9278869  63.7466293  76.6815558  66.1197721
  62.3477737  76.5447097  66.6822253  50.1595678  77.6512078  56.5109948
  49.9141720  76.7474408  56.7090158  50.3291592  77.6529229  55.5689426
  49.4291325  73.3840436  54.0096109  48.7360570  73.4584791  53.3536145
  49.1843077  72.6200780  54.5317626  55.9038450  84.1195031  52.9760626
  55.3312417  84.7385218  52.5231098  56.4771244  84.6694393  53.5100548
  59.9928220  70.4509255  65.3466576  59.3978152  70.7314267  64.6513065
  59.7077916  70.9403155  66.1183317  59.1235710  84.4032181  54.1069209
  60.0566383  84.3377743  54.3102084  59.0358923  85.2388448  53.6483741
  61.7523727  83.7198052  51.0673156  61.6737358  83.3857915  51.9608914
  62.5733394  84.2119820  51.0664628  56.2885249  75.4555844  50.3176679
  57.2344354  75.3262052  50.3865097  55.9099494  74.7170506  50.7946107
  70.2678468  77.6475798  63.4155511  70.9981856  77.3861086  63.9763215
  69.6585413  76.9104520  63.4557579  54.4728166  73.3805820  50.2531564
  53.5659621  73.0838933  50.3294278  54.7504147  73.0835638  49.3865850
  56.0890232  67.9242710  56.4075805  55.2790960  67.5789795  56.7831051
  56.7774649  67.6150254  56.9963417  53.2426951  70.2392756  50.3943543
  54.1046115  70.5647654  50.6539361  53.4277295  69.4524252  49.8816609
  47.1731109  78.2533349  60.5489747  47.1501797  78.3521036  59.5971630
  47.4831745  79.0998500  60.8706913  48.1868716  85.8529124  61.6806559
  48.0523183  85.0929524  61.1144557  47.7700778  86.5770023  61.2135348
  59.3227679  81.0366047  50.6883134  60.0263529  81.2416050  51.3040790
  58.5990327  81.6042809  50.9532218  60.1525489  76.7875908  56.8085405
  60.0960690  77.2444460  55.9693037  60.7053831  76.0266593  56.6308247
  51.3437841  86.7498441  61.8925002  51.2270226  87.6943873  61.7903692
  50.5230288  86.4472002  62.2810801  61.2314376  81.4748576  52.7381594
  62.0659980  81.0429775  52.5559069  61.0698719  81.3030590  53.6658489
  60.8860268  77.9780690  54.1037934  60.8309072  77.8124961  53.1626378
  60.2606323  78.6856723  54.2600123  54.1956394  67.4788799  53.6823252
  54.1835063  68.4230639  53.8391523  55.0879815  67.2958944  53.3882713
  52.3692356  87.4026703  65.1080930  53.2719602  87.4350313  65.4247425
  52.1429726  86.4727153  65.1227266  54.1245958  86.1557689  61.7691009
  53.1741589  86.1559551  61.6555381  54.4278444  85.4090424  61.2527043
  69.8598651  91.9918227  62.8336771  70.4977061  91.8724975  62.1300111
  69.7419494  92.9399071  62.8924723  66.6688357  91.9445656  62.7698296
  66.3306869  91.8286720  61.8818831  67.5378126  91.5436821  62.7499302
  62.5275173  93.7981132  58.7595187  61.9640038  93.7071069  57.9911475
  62.4127568  92.9781036  59.2397679  67.1508140  93.0980507  68.7284501
  67.1396781  92.7033306  67.8565005  67.3128780  92.3646580  69.3218273
  60.0739605  95.2932324  61.5979407  60.8660897  94.9523148  61.1825707
  60.3136255  95.4027299  62.5181561  68.1074732  97.4652100  54.0709652
  67.4562711  98.0506180  53.6843666  68.9019095  97.9958295  54.1304689
  62.0330359  94.5541237  54.4696786  62.8061235  94.0070224  54.3309662
  62.3855758  95.4185486  54.6811247  63.8715401  95.8817619  67.6763685
  63.5805267  96.7863250  67.5610352  64.5072386  95.9234147  68.3907755
  64.7971608  93.2594468  64.2665045  65.3935181  93.0350490  63.5522008
  64.8546580  92.5179213  64.8690493  64.3696637  90.7133903  52.1015236
  64.6222157  90.1915424  51.3398699  63.4321196  90.5500048  52.2041920
  69.4139920  89.7169681  59.9089979  70.2003009  89.2989104  59.5580396
  69.6778624  90.6215773  60.0771628  69.5849997  95.1542532  54.6078636
  68.9495830  95.2277158  55.3199541  69.2547403  95.7436130  53.9297715
  74.8148347  89.6544915  60.8122958  75.5473519  89.0844131  61.0460787
  74.0587702  89.2666515  61.2529463  64.0892925  92.6162009  54.3039611
  63.9729184  91.9406912  54.9720695  64.1995185  92.1294383  53.4871764
  66.4324466  92.0772156  58.0086300  66.0682674  91.5502777  58.7199222
  67.2891582  91.6870625  57.8352786  72.3373767  83.3666489  65.2717566
  72.0057092  84.2361900  65.0478781  71.7419380  83.0502773  65.9511597
  66.0729953  87.1062056  53.0047649  66.2404356  87.9742292  53.3718120
  65.8827122  87.2689337  52.0808938  68.8305287  95.5679035  64.6713479
  68.5306010  96.4704073  64.5629286  68.4856346  95.3011218  65.5234632
  62.2817768  92.0192831  60.7050184  61.3568264  91.8869046  60.9127875
  62.5302181  92.7987051  61.2020126  72.2302430  88.0861575  62.3510916
  71.3219308  88.0176983  62.0569677  72.1790026  88.5633520  63.1792742
  66.0519174  89.5619713  53.9894316  65.9318799  90.0076764  54.8279796
  65.3571763  89.9105031  53.4307854  59.6426579  91.6626105  61.5393973
  59.7718960  91.9160584  62.4533384  58.9624030  92.2553813  61.2198628
  63.8126066 102.3323355  57.6384447  63.7350096 103.2831180  57.7172927
  63.2087710 101.9869227  58.2959373  66.3043296  89.5051220  70.2945814
  65.5276630  90.0645141  70.2848678  66.9433859  89.9908003  70.8160684
  74.0964077  86.2878013  64.1288790  73.4538457  86.5810546  63.4828585
  73.5919005  86.1730934  64.9341987  71.7504240  90.0341186  54.8174650
  72.6622096  90.2668573  54.6422347  71.2413887  90.6178231  54.2549728
  64.5589668  92.3136674  69.8563781  65.3004353  92.8521718  69.5798604
  63.8526654  92.9402962  70.0135332  70.0345008  94.4565814  68.4535942
  70.4428364  94.0148225  67.7090575  69.3122270  93.8818442  68.7070135
  66.3876078  89.3938421  65.8269499  67.2337273  89.8177835  65.9704148
  66.3274716  88.7372045  66.5208062  70.3573823  95.0167005  62.2088231
  69.7282685  95.1812719  61.5064299  69.9699485  95.4308614  62.9799195
  74.2363055  95.9521443  59.5632595  73.5514093  96.3320344  59.0129628
  74.3206904  96.5616769  60.2964543  69.5375523  87.0542789  67.4850673
  69.2936455  87.8084850  66.9484948  69.8135454  87.4328137  68.3197920
  71.4913986  93.5981402  66.1627938  71.7030881  94.2413162  65.4862319
  71.4443734  92.7643718  65.6949868  69.0940215  86.2099222  63.0664510
  68.2324694  86.5080476  63.3581248  69.1202650  86.4269621  62.1345543
  65.9101785  94.7541413  59.4738316  66.3740130  95.0329116  58.6842939
  65.6458583  93.8524857  59.2911407  62.8025866  94.3012894  62.4118079
  63.3727223  94.7300163  61.7735564  63.3933977  94.0195479  63.1102265
  64.8470671  90.8764565  56.2827881  65.5494714  91.3285609  56.7501808
  64.5151299  90.2348384  56.9107774  63.2951032  89.4676322  70.6579091
  62.6649693  90.1492603  70.8914488  63.1887120  89.3559404  69.7132229
  58.5896005  89.1348118  61.5845015  57.7995059  89.3905646  61.1085125
  59.0807252  89.9496456  61.6897055  72.6059814  96.4753357  64.3350296
  73.4277258  96.0733544  64.0532977  72.6022217  96.3721591  65.2866411
  60.5410750  89.4992697  58.5428492  59.7441913  89.6111391  59.0611987
  60.3136342  89.8379349  57.6769382  66.3716418  96.0237400  66.4911006
  66.4360850  96.4857808  67.3269178  65.6627341  95.3934765  66.6193316
  56.8733708  89.3878608  64.0160006  57.1241746  90.2725618  64.2817582
  57.4093256  89.2083210  63.2435097  80.6965807  92.8192106  60.6835267
  79.9429516  92.2499504  60.5279272  80.8313348  92.7854770  61.6305902
  66.0864435  97.6905508  56.3589987  65.9510110  98.5357044  56.7874834
  66.6274248  97.8924786  55.5955920  62.5731775  83.7697088  73.0204342
  62.1798720  83.2163286  73.6951986  63.3897915  84.0807666  73.4110859
  59.5393833  95.2080946  56.9317912  60.0518353  96.0024196  57.0823476
  60.1916545  94.5107236  56.8651513  61.3488717  98.3246702  59.0140665
  61.5255346  99.2464667  58.8261649  62.1445551  98.0105121  59.4435045
  65.4899736  85.1854967  70.6124598  66.2309449  85.7862120  70.5329061
  65.7217659  84.4432605  70.0542641  60.6341074  90.3711334  68.8902828
  60.5194589  89.4696591  69.1909927  59.7785592  90.6175031  68.5387645
  67.7132912  98.3129074  70.4890329  67.2696766  97.5265453  70.1711233
  68.3750125  98.5008225  69.8234219  62.4720033  99.8424876  65.0151007
  63.0227458  99.7141939  64.2428001  61.6331509 100.1419765  64.6645900
  69.8114150  98.5931874  68.5171730  69.7932625  99.4140755  68.0251999
  70.7334070  98.4685950  68.7421871  66.2687204  96.1076004  69.3595238
  66.8015541  95.3464292  69.1294546  65.7401285  95.8149656  70.1019393
  69.4356899  81.2136070  64.8888880  69.0921168  82.1037711  64.8127991
  69.8035861  81.0237727  64.0258465  57.5042749  93.5369600  57.7077482
  58.3417971  93.9466609  57.4911190  57.6821017  92.5969042  57.6777676
  69.4007182  91.2044681  53.3961315  68.8853805  91.9749286  53.6349703
  69.1284490  90.5309817  54.0194377  66.9854293  86.0494382  58.4546553
  66.1295889  85.6601232  58.2752192  67.3981244  86.1286342  57.5946339
  68.5153439  83.5840725  62.8538113  68.0118235  83.5470860  62.0405919
  68.8084046  84.4933468  62.9134770  64.7596325  83.6679455  61.8604295
  65.6249322  83.4722263  61.5010184  64.8273834  83.4389806  62.7873652
  74.3741456  93.9577036  55.3314489  73.5970898  93.6188195  54.8869651
  75.0532937  93.9629659  54.6569454  69.1893485  89.0771773  55.2221096
  68.8843620  89.3917922  56.0731239  70.1423927  89.1553193  55.2648429
  67.6339917  95.2361996  56.8714050  67.1061278  94.5014756  56.5587288
  67.1327419  96.0136673  56.6254019  72.6132763  93.4311017  61.9881097
  71.9556437  94.1210278  62.0761225  73.4173162  93.8207449  62.3315083
  62.3658644  85.8981663  59.2320662  62.9402396  85.6756844  58.4993855
  62.9529627  85.9670357  59.9849263  71.4238221  91.7855389  60.0385038
  71.9370103  92.4185381  60.5406748  72.0739445  91.1856585  59.6728398
  62.6928231  87.9286124  53.2516547  61.8565544  88.2660810  53.5725822
  62.5533001  87.7935103  52.3143684  64.6681312  82.7722911  57.9595731
  64.0145724  82.4571929  57.3352346  64.6261786  82.1498652  58.6855554
  65.7792517  93.0542207  49.8749023  64.8719578  92.8231460  50.0740172
  66.2763549  92.2579826  50.0623005  68.6860596 101.7639714  52.7945709
  68.0122294 102.0671411  53.4030667  69.0726418 102.5668794  52.4451167
  67.9019052  89.2604845  62.2843379  66.9841614  89.4819792  62.1265067
  68.3179196  89.3351156  61.4255086  68.6854100  90.6596261  57.4146059
  69.4325919  91.1717658  57.1053181  68.9545690  90.3380313  58.2750453
  66.9580750  93.1554801  54.3973013  66.0491969  92.8713834  54.4945483
  66.9875834  93.5753880  53.5376320  72.1900018  96.7661391  58.1664181
  71.7362345  95.9252301  58.2229371  71.5593984  97.4022789  58.5038961
  71.1332937  87.6953377  59.3964848  70.3955694  87.1830763  59.7275091
  71.3859711  87.2553759  58.5848125  70.6332957  98.6037888  59.1013999
  70.9255931  99.1642945  58.3826365  71.1431577  98.8966449  59.8567158
  71.2344564  80.4729629  59.9906618  71.5403441  79.6126992  59.7032533
  71.9597169  81.0647249  59.7905612  57.5268921  90.8760316  58.3788216
  57.3293320  90.2829676  57.6539282  56.9715585  90.5712526  59.0964154
  65.5065644  90.7683422  60.4982809  65.5614254  89.8157258  60.4225285
  64.6956846  90.9242861  60.9824107  66.6556838  94.6963545  51.7361092
  66.2176268  93.9799404  51.2766729  67.3967279  94.9239660  51.1746183
  63.4458004  89.3860482  58.2573188  62.6325870  89.6854652  58.6638380
  63.9416998  88.9916171  58.9747670  65.5966582  99.3818239  60.1907452
  65.5542761  99.6079085  59.2615984  66.5129281  99.1481613  60.3393253
  69.0432216  89.8502306  67.0888081  69.3981604  90.0773779  67.9482547
  69.6904347  90.1820683  66.4665337  74.7729953  92.9720742  57.7937411
  74.6347851  93.1622338  56.8658600  74.4166172  93.7340125  58.2505462
  62.9372079  86.9578837  63.8734423  63.5771458  86.8167596  63.1757386
  62.1049609  86.6713351  63.4973025  74.7999332  95.0397269  62.8048682
  75.2335839  94.9472558  63.6531736  75.5130913  95.0154770  62.1668698
  63.7132383  96.2581268  59.9869415  64.5072981  95.7631588  59.7851990
  63.0024075  95.7299131  59.6237121  68.5327227  98.6399363  64.3381783
  68.5864250  99.2090300  65.1059499  67.6642009  98.8101248  63.9735820
  60.0215146  90.4024349  56.0629168  59.0912734  90.3408805  56.2799130
  60.1172618  89.8800302  55.2665809  59.9400695  86.9279162  58.6507409
  60.2007513  87.8424496  58.5416570  60.7617868  86.4603605  58.8004022
  61.4125621  88.3416919  65.8206234  62.0848674  88.1334282  65.1718883
  60.5855407  88.1439005  65.3811466  75.6614882  95.0820970  65.3381567
  75.8550772  95.9866780  65.5840842  75.5615500  94.6228389  66.1720152
  67.3151193  84.9678860  67.8371895  66.6679108  85.6668810  67.7436371
  68.0852208  85.4015004  68.2048143  70.7229991  95.2327713  70.9122448
  70.5715497  95.0038264  69.9952532  70.7134670  96.1898314  70.9253793
  67.4915327  92.8059625  65.8968714  68.4207387  92.9570785  65.7237682
  67.0706357  92.8943646  65.0417361  66.2903659  96.8310290  63.6667252
  66.1514744  96.4629074  64.5393190  65.5018255  97.3457929  63.4951210
  66.8851811 101.9319386  55.0092789  67.0603566 101.4607429  55.8238411
  66.1984599 102.5585152  55.2374049  67.8408874  96.2091892  61.0556090
  67.5058707  96.1692662  61.9513740  67.3412820  95.5436608  60.5826500
  61.8153118  91.6159522  66.5808671  61.6772916  90.8839761  67.1820210
  62.7258041  91.5268423  66.2992859  70.7768066  93.5547927  51.3293150
  70.1597236  92.8294755  51.2326202  70.3084554  94.3157287  50.9860224
  64.4435419  91.3279482  66.0692351  65.1535037  90.6872674  66.0278969
  64.4004727  91.5792377  66.9918531  72.4322197  98.2646835  68.9898930
  72.3734743  97.5806055  68.3229513  72.8341716  99.0065825  68.5379556
  63.1564353  88.3144700  67.8887990  62.6201710  87.8635438  68.5409586
  62.5681061  88.4490608  67.1458455  61.4512896 105.0808749  61.7832649
  61.6909494 105.7127273  62.4611667  60.6082093 104.7296789  62.0698008
  62.5666612  87.7733351  50.4514454  61.6896078  87.6522152  50.0876700
  63.0424365  86.9819429  50.1993342  72.4339605  96.2286419  67.2212910
  71.5466383  95.8912341  67.3439308  73.0038156  95.4969450  67.4581675
  54.0868752  92.5610511  60.5455961  54.7739791  92.2472241  59.9576976
  53.9316880  93.4651875  60.2723212  58.8903474  87.4500707  64.9740985
  58.8061663  86.8426377  64.2391395  58.0686180  87.9409726  64.9750481
  65.9640758 100.8887871  64.1874153  65.8910929 101.6942843  64.6993457
  65.5218151 101.0879837  63.3622174  65.7530538 100.1259641  57.6976974
  64.9698059 100.6681322  57.7915199  66.4523283 100.6433621  58.0971215
  69.0627188  85.9354271  60.3411180  69.5595887  85.1824233  60.0212250
  68.2914169  85.9718588  59.7754389  76.9156945  91.6394636  61.9829471
  76.9046821  92.5219352  61.6123404  76.0474324  91.2866187  61.7884008
  68.4239441 100.7874705  66.3432311  69.1367414 101.4222170  66.2708213
  67.9329470 100.8838571  65.5272313  70.1456968  94.6925958  57.9149603
  69.2113247  94.8127421  57.7454307  70.3233637  93.7898425  57.6509613
  65.6462156  88.0771654  60.0682864  65.2759944  87.5242694  60.7563770
  66.1421249  87.4729787  59.5157864  73.5329520  90.5343277  58.4499637
  73.9989972  91.3671269  58.3759940  73.9837020  90.0688259  59.1544896
  63.4751355  98.5369149  67.1637882  64.1760814  99.1705632  67.3167276
  63.0046470  98.8783880  66.4033522  71.6005751  96.8787099  55.4485789
  71.8765595  96.7643693  56.3579663  70.7310250  96.4804584  55.4097962
  71.5046182  82.9023864  62.4890539  70.5909262  83.1328091  62.6572746
  71.9339284  82.9862308  63.3404571  71.2752641  91.0913756  64.9890433
  70.6224091  91.3389664  64.3342885  71.6533021  90.2777895  64.6552910
  68.2359815 101.1273450  59.0918603  68.4182209 100.3095105  59.5546355
  69.0592801 101.3441142  58.6543493  68.5701980 100.0541635  56.3533651
  69.0989747  99.5434089  55.7403813  68.8330200  99.7384165  57.2179184
  67.3240214  91.8333567  71.4756470  66.6480851  91.7327697  72.1458845
  68.1467848  91.6772781  71.9392467  59.0719073  98.0705504  64.0968985
  59.6572510  97.3249192  64.2296889  58.8743911  98.3809461  64.9805649
  61.9257728 101.1056751  59.1131427  61.2568104 101.5902879  58.6295467
  61.7870598 101.3525972  60.0274806  53.6636728  90.6411104  62.8173428
  53.7020827  90.1074695  63.6110546  53.1577021  90.1146310  62.1984405
  66.0662997 103.1400495  65.7114086  66.6181305 103.3032116  66.4763171
  66.4069190 103.7304933  65.0394111  61.0427490  85.4875645  66.3135970
  61.1068817  86.3490476  65.9013368  60.9794610  84.8749646  65.5808329
  60.5179763  87.5598777  69.9609005  61.1451801  87.1775855  70.5746529
  59.6607681  87.3412979  70.3264697  70.9173871  97.9661752  71.5662740
  71.4613775  98.5791711  71.0717695  70.3360716  98.5241331  72.0829753
  57.2945305  89.3675206  55.8927359  57.5898746  88.4585885  55.8394413
  56.3933341  89.3462946  55.5708362  69.2031384 101.0882470  62.6977768
  69.0782524 100.2872210  62.1888713  69.8610475 101.5828664  62.2091738
  60.8239552  87.4431203  61.8754908  60.1026138  88.0567171  61.7362381
  61.6132808  87.9788968  61.7971554  71.2666292  98.8891490  64.3257318
  70.3196628  98.7696842  64.2535645  71.6149066  98.0013988  64.4083579
  63.6265866  84.7785629  68.1495560  64.1500268  85.0247926  68.9121869
  63.4078199  85.6105664  67.7298697  59.0233147  87.0489304  56.0166685
  58.6945853  86.1686683  55.8341791  59.3772518  86.9936973  56.9043074
  68.2712726  98.6844207  60.5261670  68.1237688  97.7560914  60.7069240
  69.0966219  98.7064297  60.0418745  62.1374970  87.3362274  56.3842162
  62.4771043  87.8648195  55.6620771  62.5847091  87.6742680  57.1600729
  71.8746848  99.5072765  61.6126543  72.7993395  99.3015627  61.4750994
  71.7062151  99.2589167  62.5215884  64.8318411  85.7199324  65.8345230
  64.4915231  84.9207138  66.2365910  64.1257417  86.0201035  65.2622064
  65.4834883  82.8048637  64.2872553  66.3060952  82.3309115  64.1651444
  65.7272946  83.5839121  64.7871240  64.1243117  85.8336895  54.5835455
  64.8451480  86.2118148  54.0799172  63.5008421  86.5525772  54.6870433
  68.2674240  86.5382044  55.5193787  68.4837854  87.4206682  55.2182616
  67.7868307  86.1468258  54.7899429  63.0073461  89.4967758  62.0964532
  62.8618042  89.8108061  62.9888814  62.5298665  90.1152658  61.5435431
  64.8669844  86.4870306  62.1445422  64.8531413  85.5911399  61.8077719
  65.5842272  86.4940969  62.7783708  66.7195975  86.9207646  64.1898549
  66.4613753  87.8424716  64.1882879  66.1881015  86.5238080  64.8799013
  71.6642164 100.0258433  56.9688634  71.8379041  99.4604855  56.2162487
  72.1571055 100.8259328  56.7868124  57.4819124  92.0373102  65.0352193
  56.9372592  92.8132910  65.1672468  58.3598474  92.3843906  64.8771315
  64.2706740  85.3684686  57.4132992  64.3922652  84.4401332  57.6123879
  63.9808783  85.3823372  56.5011307  67.1397931  83.0539596  60.5499712
  67.1619628  83.1178929  59.5951691  67.5565990  82.2144105  60.7440218
  77.5181555  92.7894856  58.5878934  77.9612701  92.0402181  58.1898057
  76.6408065  92.7804992  58.2052666  72.6517336  99.3425197  54.0685533
  73.3468241  99.9631890  54.2872847  72.9940486  98.4920548  54.3437911
  58.2685146  91.1642998  67.9282350  57.5266882  91.3125634  68.5146980
  57.9477890  91.4251264  67.0649099  74.5508759  96.7924903  55.5972863
  75.0760084  97.1312176  54.8722183  74.4631112  95.8571918  55.4135998
  66.2128808 100.7058976  67.7262740  66.5215935 100.4608123  68.5985440
  67.0104290 100.9105615  67.2381610  66.2349420 102.8596886  59.9568117
  65.7954410 102.3673265  60.6500973  66.9857537 102.3169854  59.7160192
  58.7141759  99.0508427  59.9592745  59.5399779  98.7512199  59.5791388
  58.3635811  98.2816049  60.4082533  63.6823292  98.4034895  62.0290418
  63.0603302  97.7405600  61.7292646  64.3528159  98.4296027  61.3464066
  56.9150364  96.9694753  60.9181678  56.0782273  96.5416928  60.7365680
  56.8874010  97.1627197  61.8552469  63.7547820  86.8816683  71.6222924
  63.8035975  87.7578806  71.2400694  64.2970334  86.3394076  71.0494568
  74.2402666  97.4257806  70.9024061  73.4498209  97.4081945  70.3628561
  74.0036020  97.9646100  71.6573098  74.3600541  94.2750273  68.2156790
  74.4098546  94.1100280  69.1572313  74.2514464  93.4077532  67.8254671
  63.2436799  96.9538818  55.5048879  63.3924920  97.6374283  54.8515552
  64.0503243  96.9343909  56.0198335  71.6504303  90.2581201  69.5316097
  72.5514166  90.1187666  69.2400094  71.7252277  90.4235656  70.4714274
  65.9847108  87.6348056  68.3769283  65.1150418  87.9281622  68.1051871
  66.2206589  88.2188501  69.0976547  75.8618737  96.6947214  68.4598811
  75.5703546  97.0577195  69.2962272  75.2490869  95.9814223  68.2812144
  77.0614420  94.2600094  60.9801382  77.8961311  94.6989898  61.1438942
  77.1973549  93.7838747  60.1609627  74.1105926  91.8179829  66.9278869
  74.5860047  92.0107475  66.1197721  73.1871491  91.8739015  66.6822253
  60.9989432  92.9803996  56.5109948  60.7535474  92.0766326  56.7090158
  61.1685347  92.9821147  55.5689426  68.6886142  83.8527673  65.8934703
  69.2068086  84.5888699  65.5681192  68.3341275  84.1591666  66.7281462
  60.2685080  88.7132354  54.0096109  59.5754325  88.7876709  53.3536145
  60.0236832  87.9492697  54.5317626  68.9398736  80.2727955  61.4135600
  69.2200490  79.6051144  62.0396026  69.7249343  80.4657051  60.9010264
  66.7432205  99.4486949  52.9760626  66.1706172 100.0677136  52.5231098
  67.3164998  99.9986311  53.5100548  72.8107595  88.6945589  65.1607175
  73.7625018  88.7943687  65.1819399  72.6411045  87.9023858  65.6705259
  70.8321974  85.7801172  65.3466576  70.2371906  86.0606185  64.6513065
  70.5471671  86.2695073  66.1183317  69.9629465  99.7324099  54.1069209
  70.8960138  99.6669661  54.3102084  69.8752677 100.5680366  53.6483741
  72.5917481  99.0489969  51.0673156  72.5131113  98.7149833  51.9608914
  73.4127148  99.5411737  51.0664628  75.2895672  91.9151709  64.2749475
  75.2571993  90.9767709  64.4609159  75.8996296  91.9935745  63.5415300
  67.1279003  90.7847762  50.3176679  68.0738108  90.6553970  50.3865097
  66.7493248  90.0462424  50.7946107  75.4390161  88.7062752  64.3207758
  74.9229210  87.9221209  64.1337687  76.3230109  88.3781469  64.4854277
  73.1000888  82.4503768  60.2803571  72.9025709  82.1418856  61.1646903
  73.7100593  83.1765407  60.4101500  81.1072222  92.9767716  63.4155511
  81.8375611  92.7153004  63.9763215  80.4979168  92.2396438  63.4557579
  79.1887519  91.1175578  64.0129963  78.4620683  90.9831543  63.4046454
  78.7734806  91.4252407  64.8186681  67.0117696  94.8365508  71.7777336
  67.9320705  95.0144107  71.9717382  66.9767279  93.8921553  71.6257035
  65.3121920  88.7097738  50.2531564  64.4053376  88.4130851  50.3294278
  65.5897901  88.4127556  49.3865850  56.2299861  90.0304101  60.7030610
  55.9102645  89.1769410  60.4104984  55.6833289  90.2452680  61.4588578
  60.0079768  92.7466542  64.4200117  60.2265778  93.6783650  64.4388151
  60.4205542  92.3874517  65.2054921  66.9283986  83.2534628  56.4075805
  66.1184714  82.9081713  56.7831051  67.6168403  82.9442172  56.9963417
  68.8574534  82.3312675  58.0300102  69.4105573  82.7508128  58.6890125
  69.0944621  81.4048423  58.0723058  64.8807634  88.3199748  73.8102866
  64.7804361  89.2694105  73.7414957  64.6629176  87.9917987  72.9378936
  64.0820705  85.5684673  50.3943543  64.9439869  85.8939572  50.6539361
  64.2671049  84.7816169  49.8816609  56.0988121  93.6507013  62.6723732
  55.4051592  93.2360966  62.1593686  56.8461112  93.6927549  62.0757151
  72.2353342  84.4413200  57.5378766  71.6552011  85.0998004  57.1556819
  71.9689274  83.6190544  57.1266184  70.6856908  83.8418257  59.7400086
  71.1856686  83.9534792  58.9314405  71.3292516  83.5379310  60.3800895
  64.7438904  91.7496887  72.6267927  64.2605985  92.5497247  72.8331816
  64.8299843  91.7604832  71.6735371  58.0124863  93.5825267  60.5489747
  57.9895551  93.6812954  59.5971630  58.3225500  94.4290418  60.8706913
  60.6712241  95.6401422  64.6636361  61.6255495  95.6085364  64.5966293
  60.4724765  95.1792046  65.4786587  61.2611623  94.2102538  67.2307159
  62.0804512  94.7046617  67.2541996  61.5348431  93.2934506  67.2024726
  71.0178220  86.6013290  56.5935114  70.1304075  86.8862941  56.3755309
  71.4332209  86.4407054  55.7462391  74.3692756  86.6259811  60.3089454
  75.1453146  87.1156264  60.5814070  73.6440890  87.0517865  60.7661323
  76.8065314  87.3387430  61.3663394  77.4009805  87.0983166  60.6556703
  76.8791898  86.6194561  61.9936931  59.0262470 101.1821041  61.6806559
  58.8916938 100.4221442  61.1144557  58.6094532 101.9061941  61.2135348
  70.1621433  96.3657965  50.6883134  70.8657283  96.5707967  51.3040790
  69.4384082  96.9334727  50.9532218  70.9919243  92.1167826  56.8085405
  70.9354445  92.5736378  55.9693037  71.5447586  91.3558511  56.6308247
  74.8024049  87.9057558  57.6335524  74.5460983  87.5054194  58.4643732
  74.1776917  88.6201352  57.5085663  79.1136387  90.6453631  60.1406815
  78.5535945  90.7146821  60.9138378  78.5079890  90.4694616  59.4206312
  62.1831596 102.0790358  61.8925002  62.0663980 103.0235791  61.7903692
  61.3624042 101.7763920  62.2810801  72.0708130  96.8040494  52.7381594
  72.9053734  96.3721692  52.5559069  71.9092473  96.6322508  53.6658489
  71.7254023  93.3072607  54.1037934  71.6702826  93.1416879  53.1626378
  71.1000078  94.0148640  54.2600123  56.5146538  88.5440672  67.9299356
  57.1605401  88.0339626  68.4186581  56.3063689  89.2809353  68.5042781
  69.0399930  95.6121519  73.4291497  69.9091089  95.7862171  73.0678131
  68.5606681  96.4315936  73.3067226  65.0350148  82.8080716  53.6823252
  65.0228818  83.7522556  53.8391523  65.9273570  82.6250862  53.3882713
  63.2086110 102.7318620  65.1080930  64.1113357 102.7642230  65.4247425
  62.9823480 101.8019071  65.1227266  64.9639712 101.4849607  61.7691009
  64.0135343 101.4851468  61.6555381  65.2672198 100.7382341  61.2527043
  68.8502268  79.4023493  57.9369189  68.0834663  78.8481980  58.0825871
  69.2612972  79.4745362  58.7983341  60.8544029  85.6908289  72.0274370
  61.7175490  85.3345094  72.2377695  60.2809439  85.3522184  72.7149774
  80.6992406 107.3210145  62.8336771  81.3370815 107.2016892  62.1300111
  80.5813248 108.2690989  62.8924723  77.5082112 107.2737573  62.7698296
  77.1700623 107.1578638  61.8818831  78.3771880 106.8728738  62.7499302
  73.3668927 109.1273050  58.7595187  72.8033793 109.0362987  57.9911475
  73.2521323 108.3072954  59.2397679  77.9901895 108.4272425  68.7284501
  77.9790536 108.0325223  67.8565005  78.1522534 107.6938498  69.3218273
  70.9133359 110.6224241  61.5979407  71.7054651 110.2815066  61.1825707
  71.1530010 110.7319216  62.5181561  78.9468486 112.7944017  54.0709652
  78.2956466 113.3798098  53.6843666  79.7412849 113.3250212  54.1304689
  72.8724113 109.8833154  54.4696786  73.6454989 109.3362142  54.3309662
  73.2249512 110.7477404  54.6811247  74.7109156 111.2109537  67.6763685
  74.4199022 112.1155168  67.5610352  75.3466140 111.2526064  68.3907755
  75.6365363 108.5886385  64.2665045  76.2328935 108.3642408  63.5522008
  75.6940334 107.8471131  64.8690493  75.2090391 106.0425821  52.1015236
  75.4615912 105.5207342  51.3398699  74.2714950 105.8791966  52.2041920
  80.2533674 105.0461599  59.9089979  81.0396763 104.6281022  59.5580396
  80.5172378 105.9507691  60.0771628  80.4243751 110.4834449  54.6078636
  79.7889584 110.5569076  55.3199541  80.0941158 111.0728048  53.9297715
  85.6542101 104.9836832  60.8122958  86.3867273 104.4136049  61.0460787
  84.8981457 104.5958433  61.2529463  74.9286680 107.9453927  54.3039611
  74.8122938 107.2698830  54.9720695  75.0388940 107.4586301  53.4871764
  77.2718221 107.4064074  58.0086300  76.9076428 106.8794695  58.7199222
  78.1285337 107.0162543  57.8352786  83.1767521  98.6958406  65.2717566
  82.8450846  99.5653817  65.0478781  82.5813135  98.3794690  65.9511597
  76.9123708 102.4353973  53.0047649  77.0798110 103.3034210  53.3718120
  76.7220877 102.5981255  52.0808938  79.6699041 110.8970952  64.6713479
  79.3699764 111.7995991  64.5629286  79.3250101 110.6303135  65.5234632
  73.1211522 107.3484749  60.7050184  72.1962019 107.2160963  60.9127875
  73.3695936 108.1278968  61.2020126  83.0696185 103.4153492  62.3510916
  82.1613062 103.3468901  62.0569677  83.0183781 103.8925437  63.1792742
  76.8912929 104.8911631  53.9894316  76.7712554 105.3368682  54.8279796
  76.1965517 105.2396949  53.4307854  70.4820334 106.9918023  61.5393973
  70.6112715 107.2452502  62.4533384  69.8017785 107.5845731  61.2198628
  74.6519821 117.6615273  57.6384447  74.5743851 118.6123098  57.7172927
  74.0481464 117.3161145  58.2959373  77.1437051 104.8343138  70.2945814
  76.3670385 105.3937058  70.2848678  77.7827614 105.3199921  70.8160684
  84.9357831 101.6169931  64.1288790  84.2932211 101.9102464  63.4828585
  84.4312760 101.5022851  64.9341987  82.5897995 105.3633104  54.8174650
  83.5015851 105.5960491  54.6422347  82.0807642 105.9470148  54.2549728
  75.3983423 107.6428591  69.8563781  76.1398107 108.1813635  69.5798604
  74.6920408 108.2694880  70.0135332  80.8738763 109.7857732  68.4535942
  81.2822119 109.3440142  67.7090575  80.1516024 109.2110359  68.7070135
  77.2269833 104.7230339  65.8269499  78.0731028 105.1469752  65.9704148
  77.1668470 104.0663963  66.5208062  81.1967577 110.3458922  62.2088231
  80.5676440 110.5104637  61.5064299  80.8093239 110.7600532  62.9799195
  85.0756809 111.2813360  59.5632595  84.3907847 111.6612262  59.0129628
  85.1600658 111.8908687  60.2964543  80.3769278 102.3834707  67.4850673
  80.1330210 103.1376768  66.9484948  80.6529208 102.7620055  68.3197920
  82.3307741 108.9273319  66.1627938  82.5424636 109.5705079  65.4862319
  82.2837489 108.0935636  65.6949868  79.9333970 101.5391140  63.0664510
  79.0718449 101.8372394  63.3581248  79.9596404 101.7561539  62.1345543
  76.7495539 110.0833331  59.4738316  77.2133885 110.3621034  58.6842939
  76.4852337 109.1816775  59.2911407  73.6419620 109.6304812  62.4118079
  74.2120977 110.0592080  61.7735564  74.2327732 109.3487397  63.1102265
  75.6864425 106.2056483  56.2827881  76.3888468 106.6577527  56.7501808
  75.3545054 105.5640302  56.9107774  74.1344787 104.7968240  70.6579091
  73.5043447 105.4784520  70.8914488  74.0280875 104.6851321  69.7132229
  69.4289759 104.4640036  61.5845015  68.6388813 104.7197564  61.1085125
  69.9201006 105.2788373  61.6897055  83.4453569 111.8045275  64.3350296
  84.2671012 111.4025462  64.0532977  83.4415972 111.7013509  65.2866411
  71.3804504 104.8284615  58.5428492  70.5835668 104.9403309  59.0611987
  71.1530097 105.1671267  57.6769382  77.2110172 111.3529318  66.4911006
  77.2754605 111.8149725  67.3269178  76.5021096 110.7226683  66.6193316
  67.7127462 104.7170526  64.0160006  67.9635500 105.6017536  64.2817582
  68.2487010 104.5375128  63.2435097  91.5359562 108.1484023  60.6835267
  90.7823270 107.5791421  60.5279272  91.6707103 108.1146688  61.6305902
  76.9258190 113.0197426  56.3589987  76.7903865 113.8648961  56.7874834
  77.4668002 113.2216703  55.5955920  73.4125529  99.0989005  73.0204342
  73.0192475  98.5455204  73.6951986  74.2291670  99.4099584  73.4110859
  70.3787587 110.5372864  56.9317912  70.8912108 111.3316114  57.0823476
  71.0310300 109.8399154  56.8651513  72.1882472 113.6538620  59.0140665
  72.3649100 114.5756585  58.8261649  72.9839305 113.3397039  59.4435045
  76.3293490 100.5146885  70.6124598  77.0703204 101.1154038  70.5329061
  76.5611413  99.7724522  70.0542641  71.4734828 105.7003252  68.8902828
  71.3588344 104.7988509  69.1909927  70.6179346 105.9466949  68.5387645
  78.5526666 113.6420992  70.4890329  78.1090520 112.8557371  70.1711233
  79.2143880 113.8300143  69.8234219  73.3113787 115.1716794  65.0151007
  73.8621212 115.0433857  64.2428001  72.4725263 115.4711683  64.6645900
  80.6507904 113.9223792  68.5171730  80.6326380 114.7432673  68.0251999
  81.5727824 113.7977867  68.7421871  77.1080958 111.4367922  69.3595238
  77.6409295 110.6756210  69.1294546  76.5795039 111.1441573  70.1019393
  80.2750653  96.5427987  64.8888880  79.9314923  97.4329629  64.8127991
  80.6429616  96.3529645  64.0258465  68.3436504 108.8661518  57.7077482
  69.1811726 109.2758526  57.4911190  68.5214772 107.9260960  57.6777676
  80.2400936 106.5336599  53.3961315  79.7247559 107.3041203  53.6349703
  79.9678244 105.8601735  54.0194377  77.8248047 101.3786299  58.4546553
  76.9689643 100.9893150  58.2752192  78.2374999 101.4578260  57.5946339
  79.3547194  98.9132643  62.8538113  78.8511989  98.8762778  62.0405919
  79.6477801  99.8225385  62.9134770  75.5990080  98.9971372  61.8604295
  76.4643076  98.8014181  61.5010184  75.6667588  98.7681724  62.7873652
  85.2135210 109.2868953  55.3314489  84.4364653 108.9480113  54.8869651
  85.8926691 109.2921576  54.6569454  80.0287239 104.4063691  55.2221096
  79.7237375 104.7209840  56.0731239  80.9817681 104.4845111  55.2648429
  78.4733671 110.5653914  56.8714050  77.9455033 109.8306674  56.5587288
  77.9721174 111.3428590  56.6254019  83.4526517 108.7602934  61.9881097
  82.7950191 109.4502196  62.0761225  84.2566916 109.1499366  62.3315083
  73.2052399 101.2273580  59.2320662  73.7796151 101.0048762  58.4993855
  73.7923381 101.2962275  59.9849263  82.2631976 107.1147307  60.0385038
  82.7763858 107.7477299  60.5406748  82.9133200 106.5148503  59.6728398
  73.5321986 103.2578041  53.2516547  72.6959298 103.5952728  53.5725822
  73.3926755 103.1227021  52.3143684  75.5075066  98.1014829  57.9595731
  74.8539479  97.7863846  57.3352346  75.4655541  97.4790570  58.6855554
  76.6186271 108.3834124  49.8749023  75.7113333 108.1523378  50.0740172
  77.1157303 107.5871743  50.0623005  79.5254350 117.0931631  52.7945709
  78.8516049 117.3963328  53.4030667  79.9120172 117.8960712  52.4451167
  78.7412807 104.5896763  62.2843379  77.8235368 104.8111710  62.1265067
  79.1572950 104.6643073  61.4255086  79.5247854 105.9888178  57.4146059
  80.2719673 106.5009576  57.1053181  79.7939444 105.6672231  58.2750453
  77.7974505 108.4846719  54.3973013  76.8885724 108.2005752  54.4945483
  77.8269588 108.9045798  53.5376320  83.0293772 112.0953309  58.1664181
  82.5756099 111.2544218  58.2229371  82.3987739 112.7314707  58.5038961
  81.9726692 103.0245295  59.3964848  81.2349448 102.5122681  59.7275091
  82.2253465 102.5845676  58.5848125  81.4726711 113.9329805  59.1013999
  81.7649686 114.4934862  58.3826365  81.9825332 114.2258366  59.8567158
  82.0738319  95.8021547  59.9906618  82.3797196  94.9418910  59.7032533
  82.7990924  96.3939167  59.7905612  68.3662675 106.2052233  58.3788216
  68.1687075 105.6121594  57.6539282  67.8109339 105.9004443  59.0964154
  76.3459399 106.0975340  60.4982809  76.4008008 105.1449176  60.4225285
  75.5350601 106.2534779  60.9824107  77.4950592 110.0255463  51.7361092
  77.0570022 109.3091322  51.2766729  78.2361033 110.2531578  51.1746183
  74.2851759 104.7152399  58.2573188  73.4719624 105.0146570  58.6638380
  74.7810753 104.3208088  58.9747670  76.4360337 114.7110156  60.1907452
  76.3936515 114.9371003  59.2615984  77.3523035 114.4773531  60.3393253
  79.8825970 105.1794224  67.0888081  80.2375358 105.4065697  67.9482547
  80.5298102 105.5112601  66.4665337  85.6123707 108.3012660  57.7937411
  85.4741606 108.4914256  56.8658600  85.2559926 109.0632043  58.2505462
  73.7765833 102.2870755  63.8734423  74.4165213 102.1459514  63.1757386
  72.9443364 102.0005268  63.4973025  85.6393087 110.3689187  62.8048682
  86.0729594 110.2764476  63.6531736  86.3524668 110.3446687  62.1668698
  74.5526137 111.5873185  59.9869415  75.3466736 111.0923506  59.7851990
  73.8417830 111.0591049  59.6237121  79.3720982 113.9691281  64.3381783
  79.4258004 114.5382217  65.1059499  78.5035763 114.1393166  63.9735820
  70.8608901 105.7316267  56.0629168  69.9306489 105.6700723  56.2799130
  70.9566373 105.2092220  55.2665809  70.7794450 102.2571080  58.6507409
  71.0401267 103.1716413  58.5416570  71.6011622 101.7895523  58.8004022
  72.2519375 103.6708837  65.8206234  72.9242429 103.4626199  65.1718883
  71.4249162 103.4730923  65.3811466  86.5008636 110.4112887  65.3381567
  86.6944526 111.3158698  65.5840842  86.4009255 109.9520307  66.1720152
  78.1544947 100.2970778  67.8371895  77.5072862 100.9960728  67.7436371
  78.9245963 100.7306922  68.2048143  81.5623745 110.5619630  70.9122448
  81.4109252 110.3330182  69.9952532  81.5528425 111.5190232  70.9253793
  78.3309081 108.1351543  65.8968714  79.2601141 108.2862703  65.7237682
  77.9100112 108.2235564  65.0417361  77.1297413 112.1602207  63.6667252
  76.9908499 111.7920992  64.5393190  76.3412010 112.6749847  63.4951210
  77.7245565 117.2611304  55.0092789  77.8997321 116.7899347  55.8238411
  77.0378353 117.8877070  55.2374049  78.6802628 111.5383810  61.0556090
  78.3452461 111.4984580  61.9513740  78.1806574 110.8728526  60.5826500
  72.6546872 106.9451440  66.5808671  72.5166670 106.2131679  67.1820210
  73.5651796 106.8560340  66.2992859  81.6161820 108.8839844  51.3293150
  80.9990991 108.1586673  51.2326202  81.1478309 109.6449205  50.9860224
  75.2829173 106.6571399  66.0692351  75.9928792 106.0164592  66.0278969
  75.2398481 106.9084294  66.9918531  83.2715952 113.5938753  68.9898930
  83.2128498 112.9097973  68.3229513  83.6735470 114.3357743  68.5379556
  73.9958107 103.6436617  67.8887990  73.4595464 103.1927356  68.5409586
  73.4074815 103.7782526  67.1458455  72.2906651 120.4100667  61.7832649
  72.5303249 121.0419191  62.4611667  71.4475847 120.0588707  62.0698008
  73.4060366 103.1025269  50.4514454  72.5289832 102.9814070  50.0876700
  73.8818119 102.3111347  50.1993342  83.2733359 111.5578337  67.2212910
  82.3860138 111.2204259  67.3439308  83.8431910 110.8261368  67.4581675
  64.9262506 107.8902428  60.5455961  65.6133546 107.5764158  59.9576976
  64.7710635 108.7943793  60.2723212  69.7297228 102.7792625  64.9740985
  69.6455417 102.1718295  64.2391395  68.9079935 103.2701643  64.9750481
  76.8034512 116.2179789  64.1874153  76.7304684 117.0234761  64.6993457
  76.3611906 116.4171755  63.3622174  76.5924292 115.4551559  57.6976974
  75.8091814 115.9973239  57.7915199  77.2917037 115.9725539  58.0971215
  79.9020942 101.2646189  60.3411180  80.3989642 100.5116151  60.0212250
  79.1307924 101.3010505  59.7754389  87.7550700 106.9686554  61.9829471
  87.7440576 107.8511270  61.6123404  86.8868079 106.6158105  61.7884008
  79.2633196 116.1166623  66.3432311  79.9761168 116.7514088  66.2708213
  78.7723225 116.2130489  65.5272313  80.9850723 110.0217876  57.9149603
  80.0507002 110.1419338  57.7454307  81.1627391 109.1190343  57.6509613
  76.4855911 103.4063572  60.0682864  76.1153698 102.8534612  60.7563770
  76.9815003 102.8021705  59.5157864  84.3723274 105.8635195  58.4499637
  84.8383726 106.6963187  58.3759940  84.8230775 105.3980177  59.1544896
  74.3145109 113.8661067  67.1637882  75.0154569 114.4997550  67.3167276
  73.8440224 114.2075798  66.4033522  82.4399505 112.2079016  55.4485789
  82.7159349 112.0935611  56.3579663  81.5704004 111.8096501  55.4097962
  82.3439937  98.2315782  62.4890539  81.4303017  98.4620009  62.6572746
  82.7733038  98.3154226  63.3404571  82.1146395 106.4205674  64.9890433
  81.4617846 106.6681581  64.3342885  82.4926775 105.6069812  64.6552910
  79.0753569 116.4565367  59.0918603  79.2575964 115.6387023  59.5546355
  79.8986555 116.6733059  58.6543493  79.4095735 115.3833552  56.3533651
  79.9383501 114.8726007  55.7403813  79.6723954 115.0676083  57.2179184
  78.1633968 107.1625485  71.4756470  77.4874605 107.0619614  72.1458845
  78.9861602 107.0064699  71.9392467  69.9112828 113.3997422  64.0968985
  70.4966264 112.6541110  64.2296889  69.7137666 113.7101378  64.9805649
  72.7651483 116.4348669  59.1131427  72.0961858 116.9194797  58.6295467
  72.6264352 116.6817889  60.0274806  64.5030482 105.9703022  62.8173428
  64.5414582 105.4366613  63.6110546  63.9970775 105.4438227  62.1984405
  76.9056751 118.4692413  65.7114086  77.4575059 118.6324034  66.4763171
  77.2462945 119.0596850  65.0394111  71.8821245 100.8167562  66.3135970
  71.9462571 101.6782393  65.9013368  71.8188365 100.2041564  65.5808329
  71.3573517 102.8890695  69.9609005  71.9845556 102.5067772  70.5746529
  70.5001436 102.6704897  70.3264697  81.7567626 113.2953670  71.5662740
  82.3007530 113.9083628  71.0717695  81.1754470 113.8533248  72.0829753
  68.1339060 104.6967124  55.8927359  68.4292501 103.7877802  55.8394413
  67.2327096 104.6754863  55.5708362  80.0425139 116.4174388  62.6977768
  79.9176278 115.6164128  62.1888713  80.7004230 116.9120581  62.2091738
  71.6633307 102.7723121  61.8754908  70.9419893 103.3859088  61.7362381
  72.4526563 103.3080885  61.7971554  82.1060047 114.2183408  64.3257318
  81.1590383 114.0988759  64.2535645  82.4542820 113.3305906  64.4083579
  74.4659620 100.1077547  68.1495560  74.9894022 100.3539844  68.9121869
  74.2471954 100.9397582  67.7298697  69.8626901 102.3781222  56.0166685
  69.5339608 101.4978601  55.8341791  70.2166272 102.3228890  56.9043074
  79.1106480 114.0136124  60.5261670  78.9631443 113.0852832  60.7069240
  79.9359974 114.0356215  60.0418745  72.9768725 102.6654191  56.3842162
  73.3164797 103.1940113  55.6620771  73.4240845 103.0034598  57.1600729
  82.7140602 114.8364683  61.6126543  83.6387150 114.6307544  61.4750994
  82.5455906 114.5881084  62.5215884  75.6712165 101.0491242  65.8345230
  75.3308986 100.2499055  66.2365910  74.9651172 101.3492953  65.2622064
  76.3228637  98.1340555  64.2872553  77.1454707  97.6601033  64.1651444
  76.5666701  98.9131038  64.7871240  74.9636872 101.1628813  54.5835455
  75.6845234 101.5410066  54.0799172  74.3402176 101.8817690  54.6870433
  79.1067995 101.8673962  55.5193787  79.3231609 102.7498600  55.2182616
  78.6262062 101.4760175  54.7899429  73.8467216 104.8259675  62.0964532
  73.7011797 105.1399978  62.9888814  73.3692420 105.4444576  61.5435431
  75.7063599 101.8162223  62.1445422  75.6925168 100.9203317  61.8077719
  76.4236027 101.8232887  62.7783708  77.5589730 102.2499563  64.1898549
  77.3007507 103.1716634  64.1882879  77.0274770 101.8529998  64.8799013
  82.5035918 115.3550351  56.9688634  82.6772796 114.7896773  56.2162487
  82.9964810 116.1551245  56.7868124  68.3212878 107.3665020  65.0352193
  67.7766346 108.1424828  65.1672468  69.1992228 107.7135824  64.8771315
  75.1100495 100.6976603  57.4132992  75.2316406  99.7693250  57.6123879
  74.8202537 100.7115289  56.5011307  77.9791685  98.3831514  60.5499712
  78.0013382  98.4470847  59.5951691  78.3959744  97.5436023  60.7440218
  88.3575310 108.1186773  58.5878934  88.8006456 107.3694099  58.1898057
  87.4801820 108.1096910  58.2052666  83.4911091 114.6717115  54.0685533
  84.1861995 115.2923808  54.2872847  83.8334241 113.8212466  54.3437911
  69.1078900 106.4934916  67.9282350  68.3660636 106.6417551  68.5146980
  68.7871644 106.7543181  67.0649099  85.3902514 112.1216820  55.5972863
  85.9153838 112.4604093  54.8722183  85.3024867 111.1863836  55.4135998
  77.0522563 116.0350894  67.7262740  77.3609689 115.7900041  68.5985440
  77.8498045 116.2397533  67.2381610  77.0743175 118.1888804  59.9568117
  76.6348165 117.6965182  60.6500973  77.8251292 117.6461771  59.7160192
  69.5535514 114.3800345  59.9592745  70.3793534 114.0804116  59.5791388
  69.2029566 113.6107967  60.4082533  74.5217047 113.7326813  62.0290418
  73.8997056 113.0697518  61.7292646  75.1921914 113.7587945  61.3464066
  67.7544119 112.2986671  60.9181678  66.9176027 111.8708845  60.7365680
  67.7267764 112.4919114  61.8552469  74.5941574 102.2108601  71.6222924
  74.6429730 103.0870724  71.2400694  75.1364089 101.6685994  71.0494568
  85.0796420 112.7549724  70.9024061  84.2891964 112.7373863  70.3628561
  84.8429775 113.2938018  71.6573098  85.1994295 109.6042190  68.2156790
  85.2492300 109.4392198  69.1572313  85.0908218 108.7369449  67.8254671
  74.0830554 112.2830736  55.5048879  74.2318674 112.9666201  54.8515552
  74.8896997 112.2635826  56.0198335  82.4898057 105.5873118  69.5316097
  83.3907920 105.4479583  69.2400094  82.5646032 105.7527573  70.4714274
  76.8240863 102.9639973  68.3769283  75.9544172 103.2573539  68.1051871
  77.0600343 103.5480418  69.0976547  86.7012492 112.0239132  68.4598811
  86.4097300 112.3869113  69.2962272  86.0884623 111.3106140  68.2812144
  87.9008174 109.5892012  60.9801382  88.7355066 110.0281816  61.1438942
  88.0367303 109.1130665  60.1609627  84.9499680 107.1471747  66.9278869
  85.4253802 107.3399393  66.1197721  84.0265246 107.2030932  66.6822253
  71.8383187 108.3095914  56.5109948  71.5929229 107.4058244  56.7090158
  72.0079101 108.3113064  55.5689426  79.5279897  99.1819590  65.8934703
  80.0461840  99.9180617  65.5681192  79.1735029  99.4883583  66.7281462
  71.1078834 104.0424271  54.0096109  70.4148079 104.1168626  53.3536145
  70.8630586 103.2784615  54.5317626  79.7792491  95.6019873  61.4135600
  80.0594245  94.9343062  62.0396026  80.5643098  95.7948968  60.9010264
  77.5825959 114.7778867  52.9760626  77.0099926 115.3969054  52.5231098
  78.1558753 115.3278228  53.5100548  83.6501349 104.0237507  65.1607175
  84.6018772 104.1235604  65.1819399  83.4804800 103.2315775  65.6705259
  81.6715729 101.1093090  65.3466576  81.0765661 101.3898103  64.6513065
  81.3865425 101.5986991  66.1183317  80.8023219 115.0616017  54.1069209
  81.7353892 114.9961578  54.3102084  80.7146432 115.8972284  53.6483741
  83.4311236 114.3781887  51.0673156  83.3524867 114.0441751  51.9608914
  84.2520903 114.8703655  51.0664628  86.1289427 107.2443626  64.2749475
  86.0965747 106.3059627  64.4609159  86.7390051 107.3227663  63.5415300
  77.9672758 106.1139679  50.3176679  78.9131863 105.9845887  50.3865097
  77.5887003 105.3754341  50.7946107  86.2783915 104.0354670  64.3207758
  85.7622964 103.2513126  64.1337687  87.1623864 103.7073386  64.4854277
  83.9394642  97.7795685  60.2803571  83.7419463  97.4710774  61.1646903
  84.5494348  98.5057324  60.4101500  91.9465977 108.3059633  63.4155511
  92.6769365 108.0444921  63.9763215  91.3372922 107.5688355  63.4557579
  90.0281274 106.4467496  64.0129963  89.3014437 106.3123461  63.4046454
  89.6128561 106.7544324  64.8186681  77.8511450 110.1657425  71.7777336
  78.7714460 110.3436025  71.9717382  77.8161033 109.2213471  71.6257035
  76.1515675 104.0389656  50.2531564  75.2447130 103.7422768  50.3294278
  76.4291656 103.7419474  49.3865850  67.0693615 105.3596019  60.7030610
  66.7496400 104.5061327  60.4104984  66.5227044 105.5744597  61.4588578
  70.8473523 108.0758460  64.4200117  71.0659533 109.0075568  64.4388151
  71.2599297 107.7166435  65.2054921  77.7677741  98.5826545  56.4075805
  76.9578469  98.2373630  56.7831051  78.4562158  98.2734089  56.9963417
  79.6968289  97.6604592  58.0300102  80.2499328  98.0800046  58.6890125
  79.9338375  96.7340340  58.0723058  75.7201388 103.6491666  73.8102866
  75.6198115 104.5986023  73.7414957  75.5022930 103.3209905  72.9378936
  74.9214460 100.8976591  50.3943543  75.7833624 101.2231489  50.6539361
  75.1064804 100.1108087  49.8816609  66.9381875 108.9798931  62.6723732
  66.2445347 108.5652883  62.1593686  67.6854866 109.0219467  62.0757151
  83.0747096  99.7705117  57.5378766  82.4945765 100.4289921  57.1556819
  82.8083029  98.9482462  57.1266184  81.5250662  99.1710175  59.7400086
  82.0250441  99.2826710  58.9314405  82.1686270  98.8671228  60.3800895
  75.5832658 107.0788805  72.6267927  75.0999740 107.8789165  72.8331816
  75.6693597 107.0896750  71.6735371  68.8518618 108.9117184  60.5489747
  68.8289306 109.0104872  59.5971630  69.1619254 109.7582335  60.8706913
  71.5105996 110.9693339  64.6636361  72.4649249 110.9377282  64.5966293
  71.3118519 110.5083963  65.4786587  72.1005378 109.5394456  67.2307159
  72.9198267 110.0338534  67.2541996  72.3742186 108.6226424  67.2024726
  81.8571974 101.9305208  56.5935114  80.9697829 102.2154858  56.3755309
  82.2725963 101.7698971  55.7462391  85.2086510 101.9551729  60.3089454
  85.9846900 102.4448181  60.5814070  84.4834644 102.3809783  60.7661323
  87.6459069 102.6679348  61.3663394  88.2403560 102.4275084  60.6556703
  87.7185653 101.9486479  61.9936931  69.8656225 116.5112959  61.6806559
  69.7310692 115.7513360  61.1144557  69.4488287 117.2353859  61.2135348
  81.0015188 111.6949882  50.6883134  81.7051038 111.8999885  51.3040790
  80.2777836 112.2626644  50.9532218  81.8312998 107.4459744  56.8085405
  81.7748199 107.9028295  55.9693037  82.3841340 106.6850428  56.6308247
  85.6417804 103.2349476  57.6335524  85.3854738 102.8346111  58.4643732
  85.0170672 103.9493270  57.5085663  89.9530142 105.9745549  60.1406815
  89.3929700 106.0438738  60.9138378  89.3473645 105.7986533  59.4206312
  73.0225350 117.4082276  61.8925002  72.9057735 118.3527708  61.7903692
  72.2017797 117.1055838  62.2810801  82.9101885 112.1332412  52.7381594
  83.7447489 111.7013610  52.5559069  82.7486228 111.9614425  53.6658489
  82.5647777 108.6364525  54.1037934  82.5096581 108.4708796  53.1626378
  81.9393832 109.3440558  54.2600123  67.3540292 103.8732589  67.9299356
  67.9999156 103.3631543  68.4186581  67.1457443 104.6101271  68.5042781
  79.8793684 110.9413437  73.4291497  80.7484844 111.1154089  73.0678131
  79.4000436 111.7607854  73.3067226  75.8743903  98.1372634  53.6823252
  75.8622572  99.0814474  53.8391523  76.7667324  97.9542779  53.3882713
  74.0479865 118.0610538  65.1080930  74.9507111 118.0934148  65.4247425
  73.8217235 117.1310989  65.1227266  75.8033467 116.8141524  61.7691009
  74.8529098 116.8143386  61.6555381  76.1065953 116.0674259  61.2527043
  79.6896022  94.7315411  57.9369189  78.9228418  94.1773897  58.0825871
  80.1006727  94.8037279  58.7983341  71.6937783 101.0200206  72.0274370
  72.5569245 100.6637011  72.2377695  71.1203194 100.6814101  72.7149774
  91.5386160 122.6502063  62.8336771  92.1764570 122.5308810  62.1300111
  91.4207003 123.5982907  62.8924723  88.3475866 122.6029491  62.7698296
  88.0094378 122.4870556  61.8818831  89.2165634 122.2020656  62.7499302
  84.2062682 124.4564967  58.7595187  83.6427547 124.3654904  57.9911475
  84.0915077 123.6364872  59.2397679  88.8295649 123.7564343  68.7284501
  88.8184290 123.3617141  67.8565005  88.9916289 123.0230415  69.3218273
  81.7527114 125.9516159  61.5979407  82.5448406 125.6106984  61.1825707
  81.9923764 126.0611134  62.5181561  83.7117868 125.2125072  54.4696786
  84.4848744 124.6654059  54.3309662  84.0643267 126.0769321  54.6811247
  85.5502910 126.5401454  67.6763685  85.2592776 127.4447085  67.5610352
  86.1859895 126.5817982  68.3907755  86.4759117 123.9178303  64.2665045
  87.0722690 123.6934325  63.5522008  86.5334089 123.1763048  64.8690493
  86.0484146 121.3717738  52.1015236  86.3009666 120.8499260  51.3398699
  85.1108705 121.2083884  52.2041920  91.0927428 120.3753517  59.9089979
  91.8790518 119.9572940  59.5580396  91.3566133 121.2799609  60.0771628
  91.2637506 125.8126367  54.6078636  90.6283339 125.8860993  55.3199541
  90.9334912 126.4019966  53.9297715  96.4935856 120.3128750  60.8122958
  97.2261028 119.7427967  61.0460787  95.7375211 119.9250350  61.2529463
  85.7680434 123.2745844  54.3039611  85.6516693 122.5990748  54.9720695
  85.8782694 122.7878218  53.4871764  88.1111975 122.7355991  58.0086300
  87.7470183 122.2086612  58.7199222  88.9679091 122.3454460  57.8352786
  94.0161276 114.0250324  65.2717566  93.6844601 114.8945735  65.0478781
  93.4206889 113.7086608  65.9511597  87.7517462 117.7645891  53.0047649
  87.9191865 118.6326127  53.3718120  87.5614631 117.9273173  52.0808938
  90.5092796 126.2262870  64.6713479  90.2093519 127.1287909  64.5629286
  90.1643855 125.9595053  65.5234632  83.9605277 122.6776667  60.7050184
  83.0355773 122.5452881  60.9127875  84.2089690 123.4570886  61.2020126
  93.9089939 118.7445410  62.3510916  93.0006817 118.6760819  62.0569677
  93.8577535 119.2217355  63.1792742  87.7306683 120.2203549  53.9894316
  87.6106308 120.6660599  54.8279796  87.0359272 120.5688866  53.4307854
  81.3214088 122.3209940  61.5393973  81.4506469 122.5744419  62.4533384
  80.6411539 122.9137648  61.2198628  87.9830805 120.1635056  70.2945814
  87.2064139 120.7228976  70.2848678  88.6221368 120.6491839  70.8160684
  95.7751586 116.9461849  64.1288790  95.1325966 117.2394382  63.4828585
  95.2706514 116.8314769  64.9341987  93.4291749 120.6925022  54.8174650
  94.3409605 120.9252408  54.6422347  92.9201396 121.2762066  54.2549728
  86.2377177 122.9720509  69.8563781  86.9791862 123.5105553  69.5798604
  85.5314163 123.5986798  70.0135332  91.7132517 125.1149650  68.4535942
  92.1215873 124.6732060  67.7090575  90.9909779 124.5402277  68.7070135
  88.0663587 120.0522256  65.8269499  88.9124782 120.4761670  65.9704148
  88.0062225 119.3955881  66.5208062  92.0361332 125.6750840  62.2088231
  91.4070194 125.8396554  61.5064299  91.6486994 126.0892450  62.9799195
  91.2163032 117.7126625  67.4850673  90.9723964 118.4668685  66.9484948
  91.4922963 118.0911972  68.3197920  93.1701495 124.2565237  66.1627938
  93.3818390 124.8996997  65.4862319  93.1231243 123.4227554  65.6949868
  90.7727724 116.8683058  63.0664510  89.9112203 117.1664311  63.3581248
  90.7990159 117.0853457  62.1345543  87.5889294 125.4125248  59.4738316
  88.0527639 125.6912951  58.6842939  87.3246092 124.5108693  59.2911407
  84.4813375 124.9596730  62.4118079  85.0514732 125.3883998  61.7735564
  85.0721486 124.6779315  63.1102265  86.5258180 121.5348401  56.2827881
  87.2282223 121.9869444  56.7501808  86.1938808 120.8932219  56.9107774
  84.9738541 120.1260157  70.6579091  84.3437202 120.8076438  70.8914488
  84.8674629 120.0143239  69.7132229  80.2683514 119.7931953  61.5845015
  79.4782568 120.0489482  61.1085125  80.7594761 120.6080291  61.6897055
  82.2198259 120.1576533  58.5428492  81.4229422 120.2695227  59.0611987
  81.9923851 120.4963185  57.6769382  88.0503927 126.6821236  66.4911006
  88.1148359 127.1441643  67.3269178  87.3414850 126.0518601  66.6193316
  78.5521217 120.0462444  64.0160006  78.8029255 120.9309454  64.2817582
  79.0880765 119.8667045  63.2435097  87.7651944 128.3489343  56.3589987
  87.6297619 129.1940879  56.7874834  88.3061757 128.5508621  55.5955920
  84.2519284 114.4280923  73.0204342  83.8586229 113.8747122  73.6951986
  85.0685424 114.7391502  73.4110859  81.2181342 125.8664781  56.9317912
  81.7305862 126.6608032  57.0823476  81.8704054 125.1691072  56.8651513
  83.0276226 128.9830538  59.0140665  83.2042855 129.9048502  58.8261649
  83.8233060 128.6688957  59.4435045  87.1687245 115.8438802  70.6124598
  87.9096958 116.4445955  70.5329061  87.4005168 115.1016440  70.0542641
  82.3128583 121.0295169  68.8902828  82.1982098 120.1280427  69.1909927
  81.4573101 121.2758866  68.5387645  84.1507542 130.5008711  65.0151007
  84.7014967 130.3725775  64.2428001  83.3119018 130.8003600  64.6645900
  87.9474713 126.7659839  69.3595238  88.4803050 126.0048127  69.1294546
  87.4188794 126.4733491  70.1019393  91.1144408 111.8719905  64.8888880
  90.7708677 112.7621547  64.8127991  91.4823370 111.6821563  64.0258465
  79.1830258 124.1953436  57.7077482  80.0205480 124.6050444  57.4911190
  79.3608526 123.2552878  57.6777676  91.0794691 121.8628516  53.3961315
  90.5641314 122.6333121  53.6349703  90.8071999 121.1893652  54.0194377
  88.6641802 116.7078217  58.4546553  87.8083398 116.3185067  58.2752192
  89.0768753 116.7870178  57.5946339  90.1940948 114.2424560  62.8538113
  89.6905744 114.2054695  62.0405919  90.4871555 115.1517303  62.9134770
  86.4383834 114.3263290  61.8604295  87.3036831 114.1306099  61.5010184
  86.5061343 114.0973642  62.7873652  90.8680994 119.7355608  55.2221096
  90.5631129 120.0501758  56.0731239  91.8211436 119.8137028  55.2648429
  89.3127426 125.8945832  56.8714050  88.7848787 125.1598591  56.5587288
  88.8114928 126.6720508  56.6254019  84.0446153 116.5565498  59.2320662
  84.6189905 116.3340679  58.4993855  84.6317136 116.6254192  59.9849263
  93.1025730 122.4439225  60.0385038  93.6157612 123.0769217  60.5406748
  93.7526954 121.8440420  59.6728398  84.3715740 118.5869959  53.2516547
  83.5353053 118.9244646  53.5725822  84.2320510 118.4518939  52.3143684
  86.3468821 113.4306747  57.9595731  85.6933233 113.1155764  57.3352346
  86.3049295 112.8082487  58.6855554  87.4580026 123.7126042  49.8749023
  86.5507087 123.4815295  50.0740172  87.9551058 122.9163661  50.0623005
  89.5806561 119.9188680  62.2843379  88.6629123 120.1403627  62.1265067
  89.9966705 119.9934991  61.4255086  90.3641609 121.3180096  57.4146059
  91.1113428 121.8301493  57.1053181  90.6333199 120.9964149  58.2750453
  88.6368259 123.8138637  54.3973013  87.7279478 123.5297670  54.4945483
  88.6663343 124.2337715  53.5376320  92.8120446 118.3537212  59.3964848
  92.0743203 117.8414599  59.7275091  93.0647220 117.9137594  58.5848125
  92.9132073 111.1313464  59.9906618  93.2190950 110.2710828  59.7032533
  93.6384678 111.7231085  59.7905612  79.2056430 121.5344151  58.3788216
  79.0080829 120.9413512  57.6539282  78.6503094 121.2296361  59.0964154
  87.1853153 121.4267257  60.4982809  87.2401763 120.4741094  60.4225285
  86.3744355 121.5826696  60.9824107  88.3344347 125.3547380  51.7361092
  87.8963777 124.6383239  51.2766729  89.0754788 125.5823495  51.1746183
  85.1245513 120.0444317  58.2573188  84.3113379 120.3438488  58.6638380
  85.6204507 119.6500006  58.9747670  90.7219725 120.5086142  67.0888081
  91.0769113 120.7357615  67.9482547  91.3691856 120.8404518  66.4665337
  84.6159588 117.6162673  63.8734423  85.2558967 117.4751432  63.1757386
  83.7837118 117.3297186  63.4973025  85.3919892 126.9165103  59.9869415
  86.1860490 126.4215423  59.7851990  84.6811584 126.3882966  59.6237121
  81.7002655 121.0608185  56.0629168  80.7700243 120.9992640  56.2799130
  81.7960127 120.5384138  55.2665809  81.6188204 117.5862998  58.6507409
  81.8795022 118.5008331  58.5416570  82.4405377 117.1187440  58.8004022
  83.0913130 119.0000755  65.8206234  83.7636183 118.7918117  65.1718883
  82.2642916 118.8022841  65.3811466  88.9938702 115.6262696  67.8371895
  88.3466617 116.3252645  67.7436371  89.7639717 116.0598840  68.2048143
  89.1702836 123.4643461  65.8968714  90.0994896 123.6154620  65.7237682
  88.7493866 123.5527481  65.0417361  87.9691168 127.4894125  63.6667252
  87.8302253 127.1212909  64.5393190  87.1805764 128.0041764  63.4951210
  89.5196383 126.8675728  61.0556090  89.1846216 126.8276498  61.9513740
  89.0200329 126.2020444  60.5826500  83.4940627 122.2743358  66.5808671
  83.3560425 121.5423597  67.1820210  84.4045550 122.1852258  66.2992859
  92.4555575 124.2131762  51.3293150  91.8384745 123.4878590  51.2326202
  91.9872063 124.9741122  50.9860224  86.1222928 121.9863317  66.0692351
  86.8322546 121.3456509  66.0278969  86.0792236 122.2376212  66.9918531
  84.8351862 118.9728535  67.8887990  84.2989219 118.5219273  68.5409586
  84.2468570 119.1074444  67.1458455  84.2454120 118.4317186  50.4514454
  83.3683587 118.3105987  50.0876700  84.7211874 117.6403265  50.1993342
  75.7656261 123.2194346  60.5455961  76.4527300 122.9056076  59.9576976
  75.6104389 124.1235711  60.2723212  80.5690983 118.1084543  64.9740985
  80.4849171 117.5010212  64.2391395  79.7473689 118.5993561  64.9750481
  90.7414697 116.5938106  60.3411180  91.2383396 115.8408069  60.0212250
  89.9701678 116.6302423  59.7754389  91.8244477 125.3509793  57.9149603
  90.8900756 125.4711256  57.7454307  92.0021146 124.4482260  57.6509613
  87.3249665 118.7355489  60.0682864  86.9547453 118.1826530  60.7563770
  87.8208758 118.1313623  59.5157864  95.2117029 121.1927113  58.4499637
  95.6777481 122.0255104  58.3759940  95.6624529 120.7272094  59.1544896
  85.1538864 129.1952984  67.1637882  85.8548323 129.8289467  67.3167276
  84.6833979 129.5367716  66.4033522  93.1833691 113.5607700  62.4890539
  92.2696771 113.7911927  62.6572746  93.6126793 113.6446144  63.3404571
  92.9540150 121.7497592  64.9890433  92.3011600 121.9973499  64.3342885
  93.3320530 120.9361730  64.6552910  89.0027723 122.4917403  71.4756470
  88.3268360 122.3911532  72.1458845  89.8255357 122.3356616  71.9392467
  80.7506582 128.7289339  64.0968985  81.3360019 127.9833027  64.2296889
  80.5531420 129.0393296  64.9805649  83.6045237 131.7640587  59.1131427
  82.9355612 132.2486714  58.6295467  83.4658107 132.0109807  60.0274806
  75.3424237 121.2994939  62.8173428  75.3808336 120.7658530  63.6110546
  74.8364530 120.7730145  62.1984405  82.7214999 116.1459480  66.3135970
  82.7856326 117.0074311  65.9013368  82.6582119 115.5333482  65.5808329
  82.1967272 118.2182613  69.9609005  82.8239310 117.8359690  70.5746529
  81.3395190 117.9996814  70.3264697  78.9732814 120.0259042  55.8927359
  79.2686255 119.1169720  55.8394413  78.0720850 120.0046781  55.5708362
  82.5027061 118.1015038  61.8754908  81.7813647 118.7151006  61.7362381
  83.2920317 118.6372803  61.7971554  85.3053375 115.4369465  68.1495560
  85.8287777 115.6831761  68.9121869  85.0865708 116.2689500  67.7298697
  80.7020656 117.7073139  56.0166685  80.3733362 116.8270518  55.8341791
  81.0560027 117.6520808  56.9043074  83.8162479 117.9946109  56.3842162
  84.1558552 118.5232030  55.6620771  84.2634600 118.3326515  57.1600729
  86.5105920 116.3783160  65.8345230  86.1702740 115.5790973  66.2365910
  85.8044926 116.6784871  65.2622064  87.1622392 113.4632472  64.2872553
  87.9848461 112.9892950  64.1651444  87.4060455 114.2422956  64.7871240
  85.8030626 116.4920731  54.5835455  86.5238989 116.8701983  54.0799172
  85.1795930 117.2109608  54.6870433  89.9461749 117.1965880  55.5193787
  90.1625363 118.0790518  55.2182616  89.4655816 116.8052093  54.7899429
  84.6860970 120.1551593  62.0964532  84.5405551 120.4691896  62.9888814
  84.2086174 120.7736493  61.5435431  86.5457353 117.1454141  62.1445422
  86.5318922 116.2495234  61.8077719  87.2629781 117.1524805  62.7783708
  88.3983484 117.5791481  64.1898549  88.1401262 118.5008552  64.1882879
  87.8668524 117.1821916  64.8799013  79.1606633 122.6956937  65.0352193
  78.6160101 123.4716745  65.1672468  80.0385982 123.0427742  64.8771315
  85.9494249 116.0268521  57.4132992  86.0710160 115.0985167  57.6123879
  85.6596292 116.0407207  56.5011307  88.8185440 113.7123432  60.5499712
  88.8407136 113.7762765  59.5951691  89.2353499 112.8727940  60.7440218
  79.9472654 121.8226834  67.9282350  79.2054391 121.9709469  68.5146980
  79.6265399 122.0835099  67.0649099  80.3929268 129.7092262  59.9592745
  81.2187288 129.4096034  59.5791388  80.0423320 128.9399885  60.4082533
  85.3610801 129.0618731  62.0290418  84.7390811 128.3989436  61.7292646
  86.0315668 129.0879862  61.3464066  78.5937873 127.6278589  60.9181678
  77.7569782 127.2000763  60.7365680  78.5661519 127.8211032  61.8552469
  85.4335329 117.5400519  71.6222924  85.4823484 118.4162641  71.2400694
  85.9757843 116.9977912  71.0494568  84.9224308 127.6122654  55.5048879
  85.0712429 128.2958118  54.8515552  85.7290752 127.5927744  56.0198335
  93.3291812 120.9165036  69.5316097  94.2301675 120.7771501  69.2400094
  93.4039786 121.0819491  70.4714274  87.6634617 118.2931891  68.3769283
  86.7937927 118.5865457  68.1051871  87.8994098 118.8772336  69.0976547
  95.7893435 122.4763664  66.9278869  96.2647556 122.6691311  66.1197721
  94.8659000 122.5322850  66.6822253  82.6776941 123.6387831  56.5109948
  82.4322983 122.7350161  56.7090158  82.8472856 123.6404982  55.5689426
  90.3673651 114.5111508  65.8934703  90.8855595 115.2472535  65.5681192
  90.0128784 114.8175501  66.7281462  81.9472589 119.3716189  54.0096109
  81.2541834 119.4460544  53.3536145  81.7024341 118.6076533  54.5317626
  90.6186245 110.9311790  61.4135600  90.8987999 110.2634979  62.0396026
  91.4036852 111.1240886  60.9010264  94.4895104 119.3529424  65.1607175
  95.4412527 119.4527522  65.1819399  94.3198554 118.5607693  65.6705259
  92.5109483 116.4385008  65.3466576  91.9159415 116.7190020  64.6513065
  92.2259180 116.9278909  66.1183317  88.8066512 121.4431597  50.3176679
  89.7525617 121.3137805  50.3865097  88.4280757 120.7046259  50.7946107
  97.1177670 119.3646587  64.3207758  96.6016719 118.5805044  64.1337687
  98.0017618 119.0365304  64.4854277  94.7788397 113.1087603  60.2803571
  94.5813218 112.8002691  61.1646903  95.3888102 113.8349242  60.4101500
  88.6905205 125.4949343  71.7777336  89.6108214 125.6727942  71.9717382
  88.6554788 124.5505389  71.6257035  86.9909429 119.3681573  50.2531564
  86.0840885 119.0714686  50.3294278  87.2685410 119.0711392  49.3865850
  77.9087370 120.6887937  60.7030610  77.5890154 119.8353245  60.4104984
  77.3620798 120.9036515  61.4588578  81.6867277 123.4050378  64.4200117
  81.9053287 124.3367486  64.4388151  82.0993051 123.0458352  65.2054921
  88.6071495 113.9118463  56.4075805  87.7972223 113.5665548  56.7831051
  89.2955912 113.6026007  56.9963417  90.5362043 112.9896510  58.0300102
  91.0893082 113.4091963  58.6890125  90.7732130 112.0632258  58.0723058
  86.5595143 118.9783584  73.8102866  86.4591870 119.9277941  73.7414957
  86.3416685 118.6501822  72.9378936  85.7608214 116.2268509  50.3943543
  86.6227378 116.5523407  50.6539361  85.9458558 115.4400005  49.8816609
  77.7775630 124.3090848  62.6723732  77.0839101 123.8944801  62.1593686
  78.5248621 124.3511385  62.0757151  93.9140851 115.0997035  57.5378766
  93.3339520 115.7581839  57.1556819  93.6476783 114.2774380  57.1266184
  92.3644417 114.5002093  59.7400086  92.8644195 114.6118627  58.9314405
  93.0080025 114.1963146  60.3800895  86.4226413 122.4080722  72.6267927
  85.9393494 123.2081083  72.8331816  86.5087352 122.4188667  71.6735371
  79.6912372 124.2409102  60.5489747  79.6683060 124.3396789  59.5971630
  80.0013009 125.0874253  60.8706913  82.3499750 126.2985257  64.6636361
  83.3043004 126.2669199  64.5966293  82.1512274 125.8375881  65.4786587
  82.9399132 124.8686373  67.2307159  83.7592021 125.3630452  67.2541996
  83.2135940 123.9518341  67.2024726  92.6965729 117.2597125  56.5935114
  91.8091584 117.5446776  56.3755309  93.1119718 117.0990889  55.7462391
  96.0480265 117.2843646  60.3089454  96.8240655 117.7740099  60.5814070
  95.3228399 117.7101701  60.7661323  98.4852823 117.9971266  61.3663394
  99.0797314 117.7567002  60.6556703  98.5579407 117.2778396  61.9936931
  80.7049979 131.8404877  61.6806559  80.5704447 131.0805278  61.1144557
  80.2882041 132.5645776  61.2135348  92.6706752 122.7751661  56.8085405
  92.6141954 123.2320213  55.9693037  93.2235095 122.0142346  56.6308247
  96.4811558 118.5641393  57.6335524  96.2248492 118.1638029  58.4643732
  95.8564426 119.2785187  57.5085663  93.4041532 123.9656443  54.1037934
  93.3490335 123.8000714  53.1626378  92.7787587 124.6732476  54.2600123
  78.1934047 119.2024507  67.9299356  78.8392910 118.6923461  68.4186581
  77.9851198 119.9393189  68.5042781  86.7137657 113.4664552  53.6823252
  86.7016327 114.4106392  53.8391523  87.6061079 113.2834697  53.3882713
  90.5289777 110.0607328  57.9369189  89.7622172 109.5065815  58.0825871
  90.9400481 110.1329197  58.7983341  82.5331538 116.3492124  72.0274370
  83.3962999 115.9928929  72.2377695  81.9596948 116.0106019  72.7149774
  26.5023634   7.6812679  49.5582078  27.1402044   7.5619427  48.8545418
  26.3844477   8.6293523  49.6170030  23.3113341   7.6340107  49.4943603
  22.9731852   7.5181172  48.6064137  24.1803109   7.2331273  49.4744609
  19.1700156   9.4875584  45.4840493  18.6065021   9.3965521  44.7156781
  19.0552551   8.6675488  45.9642986  23.7933124   8.7874959  55.4529808
  23.7821764   8.3927757  54.5810312  23.9553763   8.0541032  56.0463580
  16.7164588  10.9826775  48.3224714  17.5085880  10.6417600  47.9071013
  16.9561238  11.0921751  49.2426867  24.7499715  13.1546552  40.7954958
  24.0987695  13.7400632  40.4088972  25.5444078  13.6852746  40.8549996
  18.6755342  10.2435689  41.1942093  19.4486218   9.6964676  41.0554969
  19.0280741  11.1079938  41.4056554  20.5140385  11.5712071  54.4008992
  20.2230251  12.4757702  54.2855658  21.1497369  11.6128599  55.1153062
  21.4396592   8.9488919  50.9910352  22.0360164   8.7244942  50.2767315
  21.4971563   8.2073665  51.5935800  21.0121620   6.4028355  38.8260543
  21.2647141   5.8809876  38.0644006  20.0746179   6.2394500  38.9287226
  26.0564903   5.4064133  46.6335286  26.8427992   4.9883556  46.2825703
  26.3203607   6.3110225  46.8016934  26.2274980  10.8436983  41.3323943
  25.5920813  10.9171610  42.0444847  25.8972387  11.4330582  40.6543022
  31.4573330   5.3439366  47.5368264  32.1898502   4.7738583  47.7706094
  30.7012686   4.9560967  47.9774770  20.7317909   8.3056461  41.0284918
  20.6154167   7.6301364  41.6966002  20.8420169   7.8188835  40.2117071
  23.0749450   7.7666608  44.7331607  22.7107657   7.2397229  45.4444528
  23.9316566   7.3765077  44.5598092  28.9798750  -0.9439060  51.9962873
  28.6482075  -0.0743649  51.7724088  28.3844364  -1.2602776  52.6756903
  22.7154937   2.7956508  39.7292955  22.8829339   3.6636744  40.0963426
  22.5252106   2.9583789  38.8054245  25.4730270  11.2573486  51.3958786
  25.1730993  12.1598525  51.2874593  25.1281329  10.9905670  52.2479939
  18.9242751   7.7087283  47.4295490  17.9993248   7.5763497  47.6373182
  19.1727165   8.4881503  47.9265433  28.8727414   3.7756027  49.0756223
  27.9644291   3.7071435  48.7814984  28.8215009   4.2527972  49.9038049
  22.6944158   5.2514165  40.7139622  22.5743783   5.6971216  41.5525102
  21.9996746   5.5999483  40.1553160  16.2851562   7.3520557  48.2639279
  16.4143944   7.6055036  49.1778691  15.6049014   7.9448265  47.9443934
  20.4551050  18.0217807  44.3629753  20.3775079  18.9725632  44.4418234
  19.8512693  17.6763679  45.0204680  22.9468279   5.1945672  57.0191120
  22.1701613   5.7539592  57.0093985  23.5858842   5.6802455  57.5405990
  30.7389060   1.9772465  50.8534097  30.0963440   2.2704998  50.2073892
  30.2343989   1.8625385  51.6587294  28.3929224   5.7235638  41.5419956
  29.3047080   5.9563025  41.3667654  27.8838871   6.3072682  40.9795035
  21.2014652   8.0031126  56.5809087  21.9429336   8.5416170  56.3043911
  20.4951637   8.6297414  56.7380639  26.6769991  10.1460266  55.1781249
  27.0853347   9.7042677  54.4335881  25.9547253   9.5712894  55.4315442
  23.0301061   5.0832873  52.5514806  23.8762257   5.5072286  52.6949455
  22.9699699   4.4266497  53.2453369  26.9998806  10.7061457  48.9333538
  26.3707668  10.8707171  48.2309606  26.6124468  11.1203066  49.7044502
  30.8788038  11.6415895  46.2877901  30.1939076  12.0214796  45.7374935
  30.9631887  12.2511221  47.0209849  26.1800507   2.7437241  54.2095979
  25.9361439   3.4979302  53.6730255  26.4560437   3.1222589  55.0443226
  28.1338969   9.2875854  52.8873245  28.3455865   9.9307613  52.2107626
  28.0868718   8.4538170  52.4195175  25.7365198   1.8993674  49.7909817
  24.8749677   2.1974928  50.0826555  25.7627633   2.1164073  48.8590850
  22.5526768  10.4435865  46.1983623  23.0165113  10.7223568  45.4088245
  22.2883566   9.5419309  46.0156713  19.4450849   9.9907346  49.1363386
  20.0152206  10.4194615  48.4980871  20.0358961   9.7089931  49.8347572
  21.4895654   6.5659017  43.0073188  22.1919697   7.0180061  43.4747114
  21.1576282   5.9242836  43.6353081  19.9376015   5.1570774  57.3824397
  19.3074676   5.8387055  57.6159794  19.8312103   5.0453855  56.4377536
  29.2484797  12.1647809  51.0595602  30.0702241  11.7627996  50.7778284
  29.2447200  12.0616043  52.0111718  23.0141401  11.7131852  53.2156313
  23.0785833  12.1752260  54.0514485  22.3052325  11.0829217  53.3438623
  37.3390790   8.5086557  47.4080574  36.5854499   7.9393956  47.2524578
  37.4738332   8.4749222  48.3551208  22.7289419  13.3799960  43.0835293
  22.5935093  14.2251496  43.5120141  23.2699231  13.5819237  42.3201227
  16.1818816  10.8975398  43.6563218  16.6943337  11.6918648  43.8068783
  16.8341529  10.2001688  43.5896820  17.9913701  14.0141154  45.7385971
  18.1680329  14.9359119  45.5506955  18.7870534  13.6999573  46.1680351
  24.3557895  14.0023526  57.2135635  23.9121749  13.2159905  56.8956540
  25.0175109  14.1902677  56.5479526  19.1145016  15.5319328  51.7396314
  19.6652441  15.4036391  50.9673308  18.2756492  15.8314217  51.3891207
  26.4539133  14.2826326  55.2417037  26.4357608  15.1035207  54.7497306
  27.3759053  14.1580401  55.4667178  22.9112187  11.7970456  56.0840545
  23.4440524  11.0358744  55.8539853  22.3826268  11.5044108  56.8264699
  26.0432165   6.8939133  40.1206622  25.5278788   7.6643737  40.3595009
  25.7709473   6.2204269  40.7439683  31.0166439   9.6471487  42.0559795
  30.2395882   9.3082647  41.6114957  31.6957920   9.6524111  41.3814760
  25.8318468   4.7666225  41.9466403  25.5268604   5.0812374  42.7976546
  26.7848910   4.8447645  41.9893736  24.2764900  10.9256448  43.5959357
  23.7486261  10.1909208  43.2832594  23.7752403  11.7031125  43.3499325
  29.2557746   9.1205469  48.7126403  28.5981420   9.8104730  48.8006532
  30.0598145   9.5101901  49.0560390  28.0663205   7.4749841  46.7630345
  28.5795086   8.1079833  47.2652055  28.7164429   6.8751037  46.3973705
  22.4217500   8.7436658  36.5994330  21.5144562   8.5125912  36.7985479
  22.9188532   7.9474278  36.7868311  25.3285579  17.4534166  39.5191016
  24.6547278  17.7565862  40.1275974  25.7151401  18.2563246  39.1696473
  24.5444036   4.9499297  49.0088685  23.6266597   5.1714244  48.8510374
  24.9604179   5.0245607  48.1500393  25.3279083   6.3490713  44.1391366
  26.0750902   6.8612110  43.8298488  25.5970673   6.0274765  44.9995759
  23.6005733   8.8449253  41.1218320  22.6916953   8.5608286  41.2190790
  23.6300817   9.2648332  40.2621627  28.8325001  12.4555843  44.8909488
  28.3787328  11.6146753  44.9474678  28.2018968  13.0917241  45.2284268
  27.7757920   3.3847829  46.1210155  27.0380677   2.8725215  46.4520398
  28.0284694   2.9448210  45.3093432  27.2757940  14.2932340  45.8259306
  27.5680915  14.8537397  45.1071671  27.7856561  14.5860901  46.5812465
  22.1490628   6.4577874  47.2228115  22.2039237   5.5051710  47.1470592
  21.3381830   6.6137313  47.7069414  23.2981821  10.3857997  38.4606399
  22.8601251   9.6693856  38.0012036  24.0392262  10.6134112  37.8991490
  20.0882987   5.0754934  44.9818494  19.2750853   5.3749104  45.3883686
  20.5841982   4.6810622  45.6992976  22.2391565  15.0712691  46.9152759
  22.1967744  15.2973537  45.9861291  23.1554264  14.8376065  47.0638560
  25.6857199   5.5396758  53.8133388  26.0406587   5.7668231  54.6727854
  26.3329330   5.8715135  53.1910643  31.4154936   8.6615194  44.5182717
  31.2772835   8.8516790  43.5903906  31.0591155   9.4234577  44.9750768
  31.4424316  10.7291721  49.5293989  31.8760822  10.6367010  50.3777043
  32.1555896  10.7049222  48.8914005  20.3557366  11.9475720  46.7114722
  21.1497965  11.4526040  46.5097297  19.6449058  11.4193583  46.3482427
  25.1752211  14.3293815  51.0627089  25.2289233  14.8984751  51.8304805
  24.3066992  14.4995700  50.6981126  32.3039865  10.7715422  52.0626874
  32.4975755  11.6761232  52.3086149  32.2040483  10.3122841  52.8965459
  27.3654974  10.9222164  57.6367755  27.2140480  10.6932716  56.7197838
  27.3559653  11.8792766  57.6499100  24.1340310   8.4954077  52.6214021
  25.0632370   8.6465237  52.4482988  23.7131340   8.5838098  51.7662668
  22.9328642  12.5204742  50.3912559  22.7939728  12.1523526  51.2638497
  22.1443238  13.0352381  50.2196517  23.5276794  17.6213838  41.7338095
  23.7028550  17.1501881  42.5483718  22.8409582  18.2479604  41.9619356
  24.4833857  11.8986344  47.7801397  24.1483690  11.8587114  48.6759046
  23.9837803  11.2331060  47.3071807  18.4578101   7.3053974  53.3053978
  18.3197899   6.5734213  53.9065517  19.3683025   7.2162874  53.0238165
  27.4193049   9.2442379  38.0538456  26.8022220   8.5189207  37.9571509
  26.9509537  10.0051739  37.7105530  21.0860402   7.0173934  52.7937657
  21.7960020   6.3767126  52.7524276  21.0429710   7.2686829  53.7163838
  29.0747181  13.9541287  55.7144237  29.0159727  13.2700507  55.0474820
  29.4766699  14.6960277  55.2624863  18.0937879  20.7703201  48.5077955
  18.3334478  21.4021725  49.1856974  17.2507076  20.4191241  48.7943315
  29.0764588  11.9180871  53.9458216  28.1891367  11.5806793  54.0684615
  29.6463139  11.1863902  54.1826982  22.6065741  16.5782323  50.9119459
  22.5335913  17.3837295  51.4238764  22.1643134  16.7774289  50.0867481
  22.3955521  15.8154093  44.4222281  21.6123043  16.3575773  44.5160505
  23.0948266  16.3328073  44.8216522  25.7052171   1.6248723  47.0656486
  26.2020870   0.8718685  46.7457557  24.9339152   1.6613039  46.4999696
  33.5581928   7.3289088  48.7074778  33.5471805   8.2113804  48.3368711
  32.6899308   6.9760639  48.5129315  25.0664425  16.4769157  53.0677618
  25.7792397  17.1116622  52.9953520  24.5754453  16.5733023  52.2517620
  26.7881952  10.3820410  44.6394910  25.8538230  10.5021872  44.4699614
  26.9658620   9.4792877  44.3754920  22.2887140   3.7666106  46.7928171
  21.9184927   3.2137146  47.4809077  22.7846232   3.1624239  46.2403171
  30.1754503   6.2237729  45.1744944  30.6414955   7.0565721  45.1005247
  30.6262003   5.7582711  45.8790202  20.1176338  14.2263601  53.8883189
  20.8185798  14.8600084  54.0412583  19.6471453  14.5678332  53.1278828
  28.2430734  12.5681551  42.1731096  28.5190578  12.4538145  43.0824970
  27.3735233  12.1699035  42.1343269  27.9177624   6.7808208  51.7135739
  27.2649074   7.0284116  51.0588192  28.2958004   5.9672346  51.3798217
  24.8784798  16.8167901  45.8163910  25.0607193  15.9989557  46.2791662
  25.7017784  17.0335594  45.3788800  25.2126964  15.7436087  43.0778958
  25.7414730  15.2328541  42.4649120  25.4755183  15.4278617  43.9424491
  23.9665197   7.5228019  58.2001776  23.2905834   7.4222149  58.8704152
  24.7892831   7.3667233  58.6637774  15.7144056  13.7599956  50.8214292
  16.2997493  13.0143644  50.9542196  15.5168895  14.0703913  51.7050955
  18.5682712  16.7951203  45.8376734  17.8993087  17.2797331  45.3540774
  18.4295581  17.0420424  46.7520113  22.7087980  18.8294947  52.4359392
  23.2606288  18.9926568  53.2008478  23.0494174  19.4199385  51.7639417
  27.5598854  13.6556204  58.2908047  28.1038758  14.2686163  57.7963002
  26.9785699  14.2135783  58.8075060  25.8456367  16.7776922  49.4223075
  25.7207507  15.9766662  48.9134020  26.5035459  17.2723116  48.9337044
  27.9091276  14.5785942  51.0502625  26.9621611  14.4591294  50.9780951
  28.2574049  13.6908440  51.1328886  24.9137709  14.3738659  47.2506977
  24.7662672  13.4455366  47.4314547  25.7391203  14.3958749  46.7664052
  28.5171831  15.1967217  48.3371850  29.4418378  14.9910079  48.1996301
  28.3487134  14.9483618  49.2461191  24.9099223   2.2276496  42.2439094
  25.1262838   3.1101134  41.9427922  24.4293291   1.8362710  41.5144736
  19.6498445   5.1862209  48.8209839  19.5043026   5.5002512  49.7134120
  19.1723648   5.8047110  48.2680737  28.3067147  15.7152885  43.6933941
  28.4804025  15.1499307  42.9407793  28.7996038  16.5153780  43.5113431
  34.1606538   8.4789308  45.3124241  34.6037684   7.7296633  44.9143364
  33.2833049   8.4699444  44.9297973  29.2942320  15.0319649  40.7930839
  29.9893224  15.6526342  41.0118154  29.6365470  14.1815000  41.0683217
  31.1933743  12.4819355  42.3218170  31.7185067  12.8206627  41.5967490
  31.1056095  11.5466370  42.1381305  22.8553791  16.3953428  54.4508047
  23.1640918  16.1502575  55.3230746  23.6529273  16.6000067  53.9626917
  22.8774404  18.5491338  46.6813423  22.4379394  18.0567717  47.3746280
  23.6282520  18.0064306  46.4405498  15.3566742  14.7402879  46.6838051
  16.1824762  14.4406651  46.3036695  15.0060794  13.9710501  47.1327840
  20.3248276  14.0929347  48.7535725  19.7028285  13.4300052  48.4537953
  20.9953143  14.1190479  48.0709373  13.5575348  12.6589205  47.6426985
  12.7207256  12.2311380  47.4610986  13.5298993  12.8521649  48.5797776
  30.8827649  13.1152258  57.6269368  30.0923193  13.0976397  57.0873867
  30.6461003  13.6540552  58.3818405  31.0025524   9.9644725  54.9402097
  31.0523529   9.7994732  55.8817619  30.8939447   9.0971984  54.5499977
  19.8861783  12.6433270  42.2294185  20.0349903  13.3268735  41.5760858
  20.6928226  12.6238360  42.7443641  28.2929286   5.9475653  56.2561403
  29.1939149   5.8082118  55.9645401  28.3677261   6.1130108  57.1959581
  22.6272092   3.3242507  55.1014590  21.7575401   3.6176074  54.8297178
  22.8631572   3.9082952  55.8221853  32.5043721  12.3841666  55.1844118
  32.2128529  12.7471647  56.0207579  31.8915852  11.6708674  55.0057450
  33.7039403   9.9494546  47.7046688  34.5386294  10.3884350  47.8684249
  33.8398532   9.4733199  46.8854934  30.7530909   7.5074281  53.6524176
  31.2285031   7.7001927  52.8443027  29.8296474   7.5633467  53.4067560
  17.6414416   8.6698448  43.2355254  17.3960457   7.7660778  43.4335465
  17.8110330   8.6715598  42.2934732  23.3857188  15.1381401  39.7005933
  22.8131155  15.7571588  39.2476405  23.9589982  15.6880763  40.2345855
  29.4532578   4.3840041  51.8852482  30.4050001   4.4838139  51.9064706
  29.2836028   3.5918309  52.3950566  27.4746957   1.4695624  52.0711883
  26.8796890   1.7500637  51.3758371  27.1896654   1.9589525  52.8428624
  26.6054448  15.4218551  40.8314515  27.5385121  15.3564113  41.0347391
  26.5177661  16.2574818  40.3729048  29.2342465  14.7384421  37.7918463
  29.1556096  14.4044285  38.6854221  30.0552131  15.2306189  37.7909935
  31.9320656   7.6046161  50.9994781  31.8996976   6.6662161  51.1854465
  32.5421279   7.6830197  50.2660606  23.7703987   6.4742214  37.0421985
  24.7163091   6.3448422  37.1110403  23.3918232   5.7356875  37.5191414
  32.0815144   4.3957204  51.0453065  31.5654193   3.6115661  50.8582993
  32.9655093   4.0675921  51.2099584  29.7425871  -1.8601780  47.0048877
  29.5450692  -2.1686692  47.8892209  30.3525577  -1.1340141  47.1346807
  37.7497206   8.6662167  50.1400818  38.4800594   8.4047456  50.7008521
  37.1404151   7.9290889  50.1802886  35.8312503   6.8070030  50.7375269
  35.1045666   6.6725995  50.1291761  35.4159790   7.1146859  51.5431987
  23.6542679  10.5259960  58.5022642  24.5745689  10.7038559  58.6962689
  23.6192262   9.5816005  58.3502342  21.9546904   4.3992190  36.9776871
  21.0478359   4.1025303  37.0539584  22.2322885   4.1022008  36.1111157
  16.6504752   8.4360994  51.1445424  16.8690761   9.3678102  51.1633457
  17.0630525   8.0768969  51.9300227  21.5232617   4.0094200  60.5348172
  21.4229344   4.9588557  60.4660264  21.3054159   3.6812439  59.6624243
  28.8778325   0.1307652  44.2624073  28.2976994   0.7892456  43.8802125
  28.6114258  -0.6915004  43.8511490  27.3281891  -0.4687291  46.4645393
  27.8281670  -0.3570756  45.6559712  27.9717499  -0.7726238  47.1046202
  21.3863887   7.4391339  59.3513234  20.9030969   8.2391699  59.5577123
  21.4724826   7.4499284  58.3980678  14.6549847   9.2719719  47.2735053
  14.6320535   9.3707406  46.3216937  14.9650483  10.1184869  47.5952220
  17.3137225  11.3295874  51.3881668  18.2680478  11.2979816  51.3211599
  17.1149748  10.8686497  52.2031894  17.9036607   9.8996990  53.9552466
  18.7229496  10.3941068  53.9787303  18.1773414   8.9828958  53.9270033
  27.6603203   2.2907742  43.3180421  26.7729058   2.5757393  43.1000616
  28.0757192   2.1301505  42.4707698  31.0117739   2.3154263  47.0334760
  31.7878129   2.8050715  47.3059377  30.2865873   2.7412317  47.4906630
  33.4490298   3.0281882  48.0908701  34.0434788   2.7877618  47.3802009
  33.5216881   2.3089013  48.7182237  15.6687453  16.8715493  48.4051866
  15.5341921  16.1115894  47.8389864  15.2519516  17.5956393  47.9380655
  26.8046416  12.0552417  37.4128441  27.5082266  12.2602419  38.0286097
  26.0809065  12.6229179  37.6777525  27.6344227   7.8062278  43.5330711
  27.5779428   8.2630829  42.6938344  28.1872569   7.0452963  43.3553554
  31.4449033   3.5952010  44.3580831  31.1885967   3.1948646  45.1889038
  30.8201901   4.3095804  44.2330970  35.7561370   6.3348083  46.8652122
  35.1960928   6.4041272  47.6383684  35.1504874   6.1589068  46.1451618
  18.8256579  17.7684810  48.6170308  18.7088963  18.7130243  48.5148999
  18.0049025  17.4658372  49.0056108  28.7133114  12.4934946  39.4626901
  29.5478718  12.0616144  39.2804376  28.5517457  12.3216960  40.3903796
  28.3679006   8.9967059  40.8283240  28.3127810   8.8311331  39.8871685
  27.7425061   9.7043092  40.9845430  25.6824913  11.3015971  60.1536803
  26.5516073  11.4756623  59.7923438  25.2031665  12.1210388  60.0312533
  19.8511093  18.4213072  51.8326237  20.7538340  18.4536682  52.1492732
  19.6248463  17.4913523  51.8472573  21.6064695  17.1744059  48.4936315
  20.6560326  17.1745920  48.3800688  21.9097181  16.4276793  47.9772350
  37.3417389  23.0104597  49.5582078  37.9795799  22.8911344  48.8545418
  37.2238232  23.9585441  49.6170030  34.1507095  22.9632025  49.4943603
  33.8125607  22.8473090  48.6064137  35.0196863  22.5623190  49.4744609
  30.0093911  24.8167502  45.4840493  29.4458776  24.7257438  44.7156781
  29.8946306  23.9967406  45.9642986  34.6326878  24.1166877  55.4529808
  34.6215519  23.7219675  54.5810312  34.7947518  23.3832949  56.0463580
  27.5558343  26.3118693  48.3224714  28.3479635  25.9709518  47.9071013
  27.7954993  26.4213668  49.2426867  35.5893470  28.4838469  40.7954958
  34.9381449  29.0692550  40.4088972  36.3837832  29.0144664  40.8549996
  29.5149097  25.5727606  41.1942093  30.2879973  25.0256593  41.0554969
  29.8674496  26.4371856  41.4056554  31.3534139  26.9003989  54.4008992
  31.0624005  27.8049619  54.2855658  31.9891124  26.9420516  55.1153062
  32.2790346  24.2780837  50.9910352  32.8753918  24.0536860  50.2767315
  32.3365318  23.5365583  51.5935800  31.8515375  21.7320273  38.8260543
  32.1040895  21.2101794  38.0644006  30.9139934  21.5686418  38.9287226
  36.8958657  20.7356051  46.6335286  37.6821747  20.3175474  46.2825703
  37.1597362  21.6402143  46.8016934  37.0668735  26.1728901  41.3323943
  36.4314568  26.2463528  42.0444847  36.7366141  26.7622500  40.6543022
  42.2967084  20.6731284  47.5368264  43.0292256  20.1030501  47.7706094
  41.5406440  20.2852885  47.9774770  31.5711663  23.6348378  41.0284918
  31.4547921  22.9593282  41.6966002  31.6813923  23.1480752  40.2117071
  33.9143204  23.0958526  44.7331607  33.5501411  22.5689147  45.4444528
  34.7710320  22.7056995  44.5598092  39.8192505  14.3852858  51.9962873
  39.4875830  15.2548269  51.7724088  39.2238118  14.0689142  52.6756903
  33.5548691  18.1248425  39.7292955  33.7223093  18.9928662  40.0963426
  33.3645860  18.2875707  38.8054245  36.3124024  26.5865404  51.3958786
  36.0124747  27.4890443  51.2874593  35.9675084  26.3197587  52.2479939
  29.7636506  23.0379201  47.4295490  28.8387002  22.9055415  47.6373182
  30.0120919  23.8173420  47.9265433  39.7121168  19.1047944  49.0756223
  38.8038045  19.0363353  48.7814984  39.6608764  19.5819889  49.9038049
  33.5337912  20.5806083  40.7139622  33.4137537  21.0263134  41.5525102
  32.8390500  20.9291400  40.1553160  27.1245317  22.6812475  48.2639279
  27.2537698  22.9346953  49.1778691  26.4442768  23.2740183  47.9443934
  31.2944804  33.3509725  44.3629753  31.2168834  34.3017550  44.4418234
  30.6906448  33.0055597  45.0204680  33.7862034  20.5237590  57.0191120
  33.0095368  21.0831510  57.0093985  34.4252597  21.0094373  57.5405990
  41.5782815  17.3064383  50.8534097  40.9357195  17.5996916  50.2073892
  41.0737743  17.1917303  51.6587294  39.2322978  21.0527556  41.5419956
  40.1440834  21.2854943  41.3667654  38.7232625  21.6364600  40.9795035
  32.0408406  23.3323043  56.5809087  32.7823091  23.8708087  56.3043911
  31.3345392  23.9589332  56.7380639  37.5163746  25.4752184  55.1781249
  37.9247102  25.0334594  54.4335881  36.7941007  24.9004811  55.4315442
  33.8694816  20.4124791  52.5514806  34.7156011  20.8364204  52.6949455
  33.8093454  19.7558415  53.2453369  37.8392560  26.0353374  48.9333538
  37.2101423  26.1999089  48.2309606  37.4518223  26.4494984  49.7044502
  41.7181792  26.9707812  46.2877901  41.0332831  27.3506714  45.7374935
  41.8025642  27.5803139  47.0209849  37.0194261  18.0729159  54.2095979
  36.7755193  18.8271219  53.6730255  37.2954192  18.4514506  55.0443226
  38.9732724  24.6167771  52.8873245  39.1849619  25.2599531  52.2107626
  38.9262472  23.7830088  52.4195175  36.5758953  17.2285592  49.7909817
  35.7143432  17.5266845  50.0826555  36.6021388  17.4455991  48.8590850
  33.3920522  25.7727782  46.1983623  33.8558868  26.0515485  45.4088245
  33.1277320  24.8711227  46.0156713  30.2844603  25.3199264  49.1363386
  30.8545960  25.7486532  48.4980871  30.8752715  25.0381849  49.8347572
  32.3289408  21.8950935  43.0073188  33.0313452  22.3471979  43.4747114
  31.9970037  21.2534754  43.6353081  30.7769770  20.4862691  57.3824397
  30.1468431  21.1678972  57.6159794  30.6705858  20.3745773  56.4377536
  26.0714742  20.1534488  48.3090322  25.2813796  20.4092016  47.8330432
  26.5625990  20.9682825  48.4142362  40.0878552  27.4939727  51.0595602
  40.9095996  27.0919914  50.7778284  40.0840955  27.3907961  52.0111718
  28.0229488  20.5179067  45.2673798  27.2260651  20.6297761  45.7857294
  27.7955080  20.8565719  44.4014689  33.8535155  27.0423770  53.2156313
  33.9179588  27.5044177  54.0514485  33.1446079  26.4121135  53.3438623
  24.3552445  20.4064978  50.7405312  24.6060484  21.2911988  51.0062888
  24.8911994  20.2269579  49.9680404  48.1784545  23.8378475  47.4080574
  47.4248253  23.2685873  47.2524578  48.3132086  23.8041140  48.3551208
  33.5683173  28.7091877  43.0835293  33.4328848  29.5543413  43.5120141
  34.1092986  28.9111155  42.3201227  30.0550513  14.7883457  59.7449648
  29.6617458  14.2349656  60.4197293  30.8716653  15.0994036  60.1356166
  27.0212570  26.2267316  43.6563218  27.5337091  27.0210566  43.8068783
  27.6735283  25.5293606  43.5896820  28.8307455  29.3433072  45.7385971
  29.0074083  30.2651036  45.5506955  29.6264289  29.0291491  46.1680351
  32.9718474  16.2041336  57.3369905  33.7128187  16.8048490  57.2574367
  33.2036396  15.4618974  56.7787948  28.1159812  21.3897704  55.6148135
  28.0013327  20.4882961  55.9155234  27.2604329  21.6361400  55.2632951
  35.1951649  29.3315444  57.2135635  34.7515504  28.5451823  56.8956540
  35.8568863  29.5194594  56.5479526  29.9538771  30.8611246  51.7396314
  30.5046196  30.7328309  50.9673308  29.1150246  31.1606135  51.3891207
  37.2932887  29.6118244  55.2417037  37.2751363  30.4327125  54.7497306
  38.2152808  29.4872319  55.4667178  33.7505942  27.1262373  56.0840545
  34.2834278  26.3650662  55.8539853  33.2220023  26.8336025  56.8264699
  36.9175637  12.2322439  51.6134187  36.5739906  13.1224081  51.5373297
  37.2854599  12.0424097  50.7503772  24.9861487  24.5555970  44.4322789
  25.8236709  24.9652978  44.2156496  25.1639755  23.6155412  44.4022983
  36.8825919  22.2231050  40.1206622  36.3672543  22.9935655  40.3595009
  36.6103228  21.5496187  40.7439683  34.4673030  17.0680751  45.1791860
  33.6114627  16.6787602  44.9997499  34.8799982  17.1472712  44.3191646
  35.9972177  14.6027095  49.5783420  35.4936973  14.5657230  48.7651225
  36.2902784  15.5119837  49.6380077  32.2415063  14.6865824  48.5849602
  33.1068060  14.4908633  48.2255491  32.3092572  14.4576176  49.5118958
  41.8560193  24.9763405  42.0559795  41.0789636  24.6374565  41.6114957
  42.5351674  24.9816028  41.3814760  36.6712222  20.0958143  41.9466403
  36.3662358  20.4104292  42.7976546  37.6242665  20.1739562  41.9893736
  35.1158654  26.2548366  43.5959357  34.5880016  25.5201125  43.2832594
  34.6146157  27.0323042  43.3499325  40.0951500  24.4497386  48.7126403
  39.4375175  25.1396648  48.8006532  40.8991900  24.8393818  49.0560390
  29.8477382  16.9168032  45.9565968  30.4221134  16.6943214  45.2239161
  30.4348364  16.9856727  46.7094570  38.9056959  22.8041759  46.7630345
  39.4188841  23.4371751  47.2652055  39.5558183  22.2042955  46.3973705
  30.1746969  18.9472493  39.9761854  29.3384281  19.2847180  40.2971128
  30.0351739  18.8121473  39.0388991  32.1500050  13.7909281  44.6841038
  31.4964462  13.4758298  44.0597653  32.1080524  13.1685022  45.4100861
  33.2611255  24.0728576  36.5994330  32.3538316  23.8417830  36.7985479
  33.7582287  23.2766195  36.7868311  36.1679333  32.7826083  39.5191016
  35.4941032  33.0857780  40.1275974  36.5545155  33.5855164  39.1696473
  35.3837790  20.2791215  49.0088685  34.4660351  20.5006162  48.8510374
  35.7997934  20.3537525  48.1500393  36.1672838  21.6782630  44.1391366
  36.9144657  22.1904027  43.8298488  36.4364427  21.3566683  44.9995759
  34.4399488  24.1741171  41.1218320  33.5310707  23.8900204  41.2190790
  34.4694572  24.5940250  40.2621627  39.6718755  27.7847760  44.8909488
  39.2181082  26.9438670  44.9474678  39.0412722  28.4209159  45.2284268
  38.6151675  18.7139747  46.1210155  37.8774432  18.2017133  46.4520398
  38.8678448  18.2740128  45.3093432  38.1151695  29.6224257  45.8259306
  38.4074669  30.1829314  45.1071671  38.6250315  29.9152818  46.5812465
  38.7163302  11.4915999  46.7151924  39.0222179  10.6313362  46.4277839
  39.4415907  12.0833619  46.5150918  25.0087658  21.8946685  45.1033522
  24.8112058  21.3016046  44.3784589  24.4534322  21.5898895  45.8209461
  32.9884382  21.7869792  47.2228115  33.0432992  20.8343628  47.1470592
  32.1775584  21.9429231  47.7069414  34.1375576  25.7149915  38.4606399
  33.6995006  24.9985774  38.0012036  34.8786017  25.9426029  37.8991490
  30.9276742  20.4046851  44.9818494  30.1144607  20.7041022  45.3883686
  31.4235736  20.0102540  45.6992976  33.0785320  30.4004608  46.9152759
  33.0361499  30.6265455  45.9861291  33.9948019  30.1667983  47.0638560
  36.5250954  20.8688676  53.8133388  36.8800341  21.0960149  54.6727854
  37.1723085  21.2007053  53.1910643  42.2548691  23.9907112  44.5182717
  42.1166589  24.1808708  43.5903906  41.8984909  24.7526495  44.9750768
  30.4190817  17.9765207  50.5979729  31.0590196  17.8353966  49.9002693
  29.5868347  17.6899720  50.2218331  42.2818070  26.0583639  49.5293989
  42.7154577  25.9658928  50.3777043  42.9949651  26.0341139  48.8914005
  31.1951121  27.2767637  46.7114722  31.9891719  26.7817957  46.5097297
  30.4842813  26.7485500  46.3482427  36.0145965  29.6585733  51.0627089
  36.0682987  30.2276669  51.8304805  35.1460746  29.8287618  50.6981126
  27.5033884  21.4210719  42.7874474  26.5731472  21.3595175  43.0044436
  27.5991356  20.8986672  41.9911116  27.4219433  17.9465532  45.3752716
  27.6826250  18.8610865  45.2661876  28.2436605  17.4789974  45.5249329
  28.8944358  19.3603289  52.5451541  29.5667412  19.1520651  51.8964189
  28.0674145  19.1625375  52.1056773  43.1433620  26.1007339  52.0626874
  43.3369510  27.0053150  52.3086149  43.0434238  25.6414758  52.8965459
  34.7969930  15.9865230  54.5617201  34.1497845  16.6855180  54.4681678
  35.5670946  16.4201374  54.9293450  38.2048728  26.2514082  57.6367755
  38.0534235  26.0224634  56.7197838  38.1953408  27.2084684  57.6499100
  34.9734065  23.8245995  52.6214021  35.9026125  23.9757154  52.4482988
  34.5525095  23.9130016  51.7662668  33.7722397  27.8496659  50.3912559
  33.6333482  27.4815444  51.2638497  32.9836993  28.3644299  50.2196517
  34.3670549  32.9505756  41.7338095  34.5422304  32.4793799  42.5483718
  33.6803337  33.5771522  41.9619356  35.3227612  27.2278262  47.7801397
  34.9877444  27.1879032  48.6759046  34.8231557  26.5622978  47.3071807
  29.2971856  22.6345892  53.3053978  29.1591654  21.9026131  53.9065517
  30.2076779  22.5454792  53.0238165  38.2586803  24.5734296  38.0538456
  37.6415974  23.8481124  37.9571509  37.7903292  25.3343657  37.7105530
  31.9254156  22.3465851  52.7937657  32.6353775  21.7059044  52.7524276
  31.8823465  22.5978746  53.7163838  39.9140935  29.2833205  55.7144237
  39.8553481  28.5992425  55.0474820  40.3160453  30.0252195  55.2624863
  30.6383090  19.3331069  54.6133297  30.1020447  18.8821808  55.2654893
  30.0499799  19.4676978  53.8703761  28.9331634  36.0995119  48.5077955
  29.1728232  36.7313643  49.1856974  28.0900830  35.7483159  48.7943315
  30.0485349  18.7919721  37.1759760  29.1714816  18.6708521  36.8122007
  30.5243102  18.0005799  36.9238649  39.9158342  27.2472789  53.9458216
  39.0285121  26.9098710  54.0684615  40.4856893  26.5155820  54.1826982
  21.5687489  23.5796880  47.2701268  22.2558529  23.2658610  46.6822283
  21.4135618  24.4838245  46.9968519  26.3722212  18.4687077  51.6986291
  26.2880400  17.8612746  50.9636701  25.5504918  18.9596095  51.6995788
  33.4459496  31.9074241  50.9119459  33.3729667  32.7129212  51.4238764
  33.0036889  32.1066207  50.0867481  33.2349275  31.1446011  44.4222281
  32.4516797  31.6867691  44.5160505  33.9342020  31.6619991  44.8216522
  36.5445925  16.9540640  47.0656486  37.0414625  16.2010603  46.7457557
  35.7732907  16.9904957  46.4999696  44.3975683  22.6581006  48.7074778
  44.3865559  23.5405721  48.3368711  43.5293062  22.3052557  48.5129315
  35.9058179  31.8061075  53.0677618  36.6186151  32.4408540  52.9953520
  35.4148208  31.9024941  52.2517620  37.6275706  25.7112328  44.6394910
  36.6931985  25.8313790  44.4699614  37.8052375  24.8084794  44.3754920
  33.1280894  19.0958023  46.7928171  32.7578682  18.5429064  47.4809077
  33.6239987  18.4916157  46.2403171  41.0148257  21.5529647  45.1744944
  41.4808710  22.3857639  45.1005247  41.4655758  21.0874629  45.8790202
  30.9570093  29.5555518  53.8883189  31.6579552  30.1892001  54.0412583
  30.4865208  29.8970250  53.1278828  39.0824489  27.8973468  42.1731096
  39.3584332  27.7830063  43.0824970  38.2128987  27.4990953  42.1343269
  38.9864920  13.9210234  49.2135845  38.0728000  14.1514461  49.3818052
  39.4158022  14.0048678  50.0649878  38.7571379  22.1100126  51.7135739
  38.1042829  22.3576033  51.0588192  39.1351759  21.2964264  51.3798217
  35.7178553  32.1459819  45.8163910  35.9000947  31.3281475  46.2791662
  36.5411539  32.3627511  45.3788800  36.0520718  31.0728004  43.0778958
  36.5808485  30.5620459  42.4649120  36.3148938  30.7570534  43.9424491
  34.8058952  22.8519937  58.2001776  34.1299589  22.7514066  58.8704152
  35.6286586  22.6959151  58.6637774  26.5537811  29.0891873  50.8214292
  27.1391248  28.3435561  50.9542196  26.3562649  29.3995830  51.7050955
  29.4076466  32.1243121  45.8376734  28.7386841  32.6089249  45.3540774
  29.2689336  32.3712341  46.7520113  21.1455466  21.6597474  49.5418735
  21.1839565  21.1261064  50.3355853  20.6395758  21.1332679  48.9229712
  33.5481735  34.1586864  52.4359392  34.1000043  34.3218486  53.2008478
  33.8887928  34.7491302  51.7639417  28.5246228  16.5062014  53.0381277
  28.5887554  17.3676845  52.6258675  28.4613348  15.8936016  52.3053636
  27.9998500  18.5785147  56.6854311  28.6270539  18.1962224  57.2991836
  27.1426419  18.3599349  57.0510004  38.3992609  28.9848122  58.2908047
  38.9432513  29.5978080  57.7963002  37.8179454  29.5427700  58.8075060
  24.7764043  20.3861576  42.6172666  25.0717484  19.4772254  42.5639720
  23.8752079  20.3649315  42.2953668  36.6850122  32.1068840  49.4223075
  36.5601261  31.3058580  48.9134020  37.3429213  32.6015033  48.9337044
  28.3058290  18.4617572  48.6000215  27.5844876  19.0753540  48.4607688
  29.0951546  18.9975337  48.5216861  38.7485030  29.9077860  51.0502625
  37.8015366  29.7883211  50.9780951  39.0967803  29.0200358  51.1328886
  31.1084604  15.7971999  54.8740866  31.6319005  16.0434295  55.6367176
  30.8896937  16.6292034  54.4544004  26.5051885  18.0675674  42.7411991
  26.1764591  17.1873052  42.5587097  26.8591255  18.0123342  43.6288381
  35.7531464  29.7030576  47.2506977  35.6056426  28.7747284  47.4314547
  36.5784957  29.7250667  46.7664052  29.6193708  18.3548643  43.1087469
  29.9589780  18.8834565  42.3866077  30.0665828  18.6929049  43.8846035
  39.3565585  30.5259135  48.3371850  40.2812133  30.3201996  48.1996301
  39.1880889  30.2775536  49.2461191  32.3137149  16.7385694  52.5590537
  31.9733969  15.9393507  52.9611217  31.6076155  17.0387405  51.9867370
  32.9653621  13.8235006  51.0117860  33.7879690  13.3495485  50.8896750
  33.2091684  14.6025490  51.5116546  31.6061855  16.8523265  41.3080762
  32.3270218  17.2304518  40.8044479  30.9827159  17.5712142  41.4115740
  35.7492978  17.5568414  42.2439094  35.9656592  18.4393052  41.9427922
  35.2687045  17.1654627  41.5144736  30.4892199  20.5154127  48.8209839
  30.3436780  20.8294430  49.7134120  30.0117403  21.1339027  48.2680737
  32.3488582  17.5056675  48.8690728  32.3350151  16.6097768  48.5323026
  33.0661010  17.5127339  49.5029014  34.2014713  17.9394015  50.9143856
  33.9432491  18.8611086  50.9128186  33.6699753  17.5424450  51.6044320
  39.1460902  31.0444802  43.6933941  39.3197779  30.4791225  42.9407793
  39.6389793  31.8445697  43.5113431  24.9637861  23.0559471  51.7597500
  24.4191330  23.8319279  51.8917774  25.8417211  23.4030276  51.6016621
  31.7525478  16.3871055  44.1378298  31.8741389  15.4587702  44.3369186
  31.4627520  16.4009741  43.2256614  34.6216668  14.0725966  47.2745018
  34.6438365  14.1365299  46.3196998  35.0384727  13.2330474  47.4685524
  45.0000293  23.8081225  45.3124241  45.4431439  23.0588551  44.9143364
  44.1226803  23.7991362  44.9297973  40.1336074  30.3611567  40.7930839
  40.8286979  30.9818259  41.0118154  40.4759224  29.5106918  41.0683217
  25.7503883  22.1829368  54.6527657  25.0085619  22.3312003  55.2392287
  25.4296628  22.4437633  53.7894406  42.0327497  27.8111272  42.3218170
  42.5578821  28.1498545  41.5967490  41.9449850  26.8758288  42.1381305
  33.6947546  31.7245346  54.4508047  34.0034672  31.4794493  55.3230746
  34.4923028  31.9291984  53.9626917  33.7168158  33.8783256  46.6813423
  33.2773148  33.3859634  47.3746280  34.4676275  33.3356223  46.4405498
  26.1960497  30.0694796  46.6838051  27.0218517  29.7698568  46.3036695
  25.8454549  29.3002419  47.1327840  31.1642030  29.4221265  48.7535725
  30.5422039  28.7591970  48.4537953  31.8346897  29.4482397  48.0709373
  24.3969102  27.9881123  47.6426985  23.5601010  27.5603297  47.4610986
  24.3692747  28.1813566  48.5797776  31.2366558  17.9003053  58.3468231
  31.2854713  18.7765176  57.9646001  31.7789072  17.3580446  57.7739874
  41.7221403  28.4444176  57.6269368  40.9316947  28.4268315  57.0873867
  41.4854758  28.9832470  58.3818405  41.8419278  25.2936642  54.9402097
  41.8917283  25.1286650  55.8817619  41.7333202  24.4263901  54.5499977
  30.7255537  27.9725188  42.2294185  30.8743657  28.6560652  41.5760858
  31.5321981  27.9530278  42.7443641  39.1323041  21.2767570  56.2561403
  40.0332904  21.1374035  55.9645401  39.2071015  21.4422025  57.1959581
  33.4665846  18.6534425  55.1014590  32.5969155  18.9467991  54.8297178
  33.7025326  19.2374870  55.8221853  43.3437475  27.7133584  55.1844118
  43.0522283  28.0763564  56.0207579  42.7309606  27.0000592  55.0057450
  44.5433158  25.2786464  47.7046688  45.3780049  25.7176268  47.8684249
  44.6792286  24.8025117  46.8854934  41.5924663  22.8366199  53.6524176
  42.0678785  23.0293845  52.8443027  40.6690229  22.8925384  53.4067560
  28.4808170  23.9990366  43.2355254  28.2354212  23.0952696  43.4335465
  28.6504085  24.0007516  42.2934732  36.1704880  14.8714042  52.6180010
  36.6886824  15.6075069  52.2926499  35.8160013  15.1778035  53.4526769
  27.7503818  19.7318723  40.7341416  27.0573063  19.8063078  40.0781452
  27.5055569  18.9679067  41.2562933  36.4217474  11.2914325  48.1380907
  36.7019228  10.6237514  48.7641333  37.2068081  11.4843420  47.6255570
  34.2250943  30.4673318  39.7005933  33.6524910  31.0863506  39.2476405
  34.7983736  31.0172680  40.2345855  40.2926332  19.7131959  51.8852482
  41.2443755  19.8130056  51.9064706  40.1229783  18.9210227  52.3950566
  38.3140712  16.7987542  52.0711883  37.7190644  17.0792555  51.3758371
  38.0290409  17.2881443  52.8428624  37.4448202  30.7510469  40.8314515
  38.3778876  30.6856030  41.0347391  37.3571415  31.5866735  40.3729048
  40.0736219  30.0676339  37.7918463  39.9949851  29.7336203  38.6854221
  40.8945886  30.5598107  37.7909935  42.7714410  22.9338078  50.9994781
  42.7390730  21.9954079  51.1854465  43.3815034  23.0122115  50.2660606
  34.6097741  21.8034131  37.0421985  35.5556846  21.6740339  37.1110403
  34.2311986  21.0648793  37.5191414  42.9208899  19.7249122  51.0453065
  42.4047947  18.9407578  50.8582993  43.8048847  19.3967838  51.2099584
  40.5819626  13.4690137  47.0048877  40.3844447  13.1605225  47.8892209
  41.1919331  14.1951776  47.1346807  48.5890960  23.9954085  50.1400818
  49.3194349  23.7339373  50.7008521  47.9797906  23.2582807  50.1802886
  46.6706257  22.1361948  50.7375269  45.9439421  22.0017913  50.1291761
  46.2553544  22.4438776  51.5431987  34.4936434  25.8551877  58.5022642
  35.4139443  26.0330476  58.6962689  34.4586017  24.9107923  58.3502342
  32.7940658  19.7284108  36.9776871  31.8872114  19.4317220  37.0539584
  33.0716639  19.4313926  36.1111157  23.7118599  21.0490471  47.4275917
  23.3921383  20.1955779  47.1350291  23.1652027  21.2639049  48.1833884
  27.4898506  23.7652912  51.1445424  27.7084516  24.6970020  51.1633457
  27.9024280  23.4060886  51.9300227  34.4102724  14.2720997  43.1321112
  33.6003452  13.9268082  43.5076358  35.0987141  13.9628541  43.7208723
  36.3393272  13.3499044  44.7545409  36.8924311  13.7694498  45.4135432
  36.5763359  12.4234792  44.7968365  32.3626371  19.3386118  60.5348172
  32.2623098  20.2880475  60.4660264  32.1447914  19.0104357  59.6624243
  31.5639443  16.5871043  37.1188850  32.4258607  16.9125941  37.3784667
  31.7489787  15.8002539  36.6061916  23.5806859  24.6693383  49.3969039
  22.8870330  24.2547335  48.8838993  24.3279850  24.7113919  48.8002457
  39.7172079  15.4599569  44.2624073  39.1370748  16.1184373  43.8802125
  39.4508012  14.6376914  43.8511490  38.1675646  14.8604627  46.4645393
  38.6675424  14.9721162  45.6559712  38.8111254  14.5565680  47.1046202
  32.2257642  22.7683257  59.3513234  31.7424723  23.5683617  59.5577123
  32.3118581  22.7791202  58.3980678  25.4943601  24.6011636  47.2735053
  25.4714289  24.6999324  46.3216937  25.8044238  25.4476787  47.5952220
  28.1530979  26.6587791  51.3881668  29.1074233  26.6271734  51.3211599
  27.9543503  26.1978415  52.2031894  28.7430361  25.2288907  53.9552466
  29.5623250  25.7232986  53.9787303  29.0167169  24.3120876  53.9270033
  38.4996957  17.6199660  43.3180421  37.6122812  17.9049310  43.1000616
  38.9150946  17.4593423  42.4707698  41.8511493  17.6446181  47.0334760
  42.6271884  18.1342633  47.3059377  41.1259628  18.0704235  47.4906630
  44.2884052  18.3573800  48.0908701  44.8828543  18.1169536  47.3802009
  44.3610636  17.6380930  48.7182237  26.5081208  32.2007411  48.4051866
  26.3735676  31.4407812  47.8389864  26.0913270  32.9248311  47.9380655
  37.6440171  27.3844334  37.4128441  38.3476021  27.5894337  38.0286097
  36.9202820  27.9521096  37.6777525  38.4737981  23.1354196  43.5330711
  38.4173182  23.5922747  42.6938344  39.0266324  22.3744880  43.3553554
  42.2842787  18.9243928  44.3580831  42.0279721  18.5240563  45.1889038
  41.6595655  19.6387721  44.2330970  46.5955125  21.6640001  46.8652122
  46.0354683  21.7333190  47.6383684  45.9898628  21.4880985  46.1451618
  29.6650334  33.0976728  48.6170308  29.5482718  34.0422160  48.5148999
  28.8442780  32.7950289  49.0056108  39.5526868  27.8226864  39.4626901
  40.3872472  27.3908062  39.2804376  39.3911211  27.6508877  40.3903796
  39.2072760  24.3258977  40.8283240  39.1521564  24.1603248  39.8871685
  38.5818816  25.0335010  40.9845430  23.9965275  19.5627041  54.6544663
  24.6424139  19.0525995  55.1431888  23.7882427  20.2995723  55.2288088
  36.5218668  26.6307889  60.1536803  37.3909827  26.8048541  59.7923438
  36.0425419  27.4502306  60.0312533  32.5168886  13.8267086  40.4068559
  32.5047556  14.7708926  40.5636830  33.4092308  13.6437231  40.1128020
  30.6904848  33.7504990  51.8326237  31.5932095  33.7828600  52.1492732
  30.4642218  32.8205441  51.8472573  32.4458450  32.5035976  48.4936315
  31.4954081  32.5037838  48.3800688  32.7490936  31.7568711  47.9772350
  36.3321005  10.4209863  44.6614496  35.5653401   9.8668349  44.8071178
  36.7431710  10.4931731  45.5228647  28.3362766  16.7094658  58.7519677
  29.1994228  16.3531463  58.9623001  27.7628177  16.3708553  59.4395081
  48.1811143  38.3396515  49.5582078  48.8189553  38.2203262  48.8545418
  48.0631986  39.2877359  49.6170030  44.9900850  38.2923943  49.4943603
  44.6519361  38.1765007  48.6064137  45.8590618  37.8915108  49.4744609
  40.8487665  40.1459419  45.4840493  40.2852530  40.0549356  44.7156781
  40.7340060  39.3259324  45.9642986  45.4720633  39.4458795  55.4529808
  45.4609273  39.0511593  54.5810312  45.6341272  38.7124867  56.0463580
  38.3952097  41.6410611  48.3224714  39.1873389  41.3001435  47.9071013
  38.6348747  41.7505586  49.2426867  46.4287224  43.8130387  40.7954958
  45.7775204  44.3984467  40.4088972  47.2231587  44.3436582  40.8549996
  40.3542851  40.9019524  41.1942093  41.1273727  40.3548511  41.0554969
  40.7068250  41.7663773  41.4056554  42.1927894  42.2295906  54.4008992
  41.9017760  43.1341537  54.2855658  42.8284878  42.2712434  55.1153062
  43.1184101  39.6072755  50.9910352  43.7147673  39.3828777  50.2767315
  43.1759072  38.8657500  51.5935800  42.6909129  37.0612190  38.8260543
  42.9434650  36.5393711  38.0644006  41.7533688  36.8978336  38.9287226
  47.7352412  36.0647969  46.6335286  48.5215501  35.6467392  46.2825703
  47.9991116  36.9694061  46.8016934  47.9062489  41.5020819  41.3323943
  47.2708322  41.5755445  42.0444847  47.5759896  42.0914418  40.6543022
  53.1360839  36.0023202  47.5368264  53.8686011  35.4322419  47.7706094
  52.3800195  35.6144802  47.9774770  42.4105418  38.9640296  41.0284918
  42.2941676  38.2885200  41.6966002  42.5207678  38.4772670  40.2117071
  44.7536959  38.4250443  44.7331607  44.3895166  37.8981064  45.4444528
  45.6104075  38.0348912  44.5598092  50.6586259  29.7144776  51.9962873
  50.3269584  30.5840187  51.7724088  50.0631873  29.3981060  52.6756903
  44.3942446  33.4540343  39.7292955  44.5616848  34.3220579  40.0963426
  44.2039615  33.6167625  38.8054245  47.1517779  41.9157322  51.3958786
  46.8518502  42.8182361  51.2874593  46.8068838  41.6489505  52.2479939
  40.6030260  38.3671119  47.4295490  39.6780757  38.2347333  47.6373182
  40.8514673  39.1465338  47.9265433  50.5514923  34.4339862  49.0756223
  49.6431800  34.3655270  48.7814984  50.5002518  34.9111807  49.9038049
  44.3731667  35.9098000  40.7139622  44.2531292  36.3555051  41.5525102
  43.6784255  36.2583318  40.1553160  37.9639071  38.0104392  48.2639279
  38.0931452  38.2638871  49.1778691  37.2836523  38.6032100  47.9443934
  42.1338559  48.6801642  44.3629753  42.0562588  49.6309467  44.4418234
  41.5300202  48.3347515  45.0204680  44.6255788  35.8529508  57.0191120
  43.8489122  36.4123428  57.0093985  45.2646351  36.3386291  57.5405990
  52.4176569  32.6356300  50.8534097  51.7750949  32.9288834  50.2073892
  51.9131498  32.5209221  51.6587294  50.0716733  36.3819474  41.5419956
  50.9834589  36.6146860  41.3667654  49.5626380  36.9656518  40.9795035
  42.8802161  38.6614961  56.5809087  43.6216845  39.2000005  56.3043911
  42.1739146  39.2881250  56.7380639  48.3557500  40.8044101  55.1781249
  48.7640856  40.3626512  54.4335881  47.6334762  40.2296729  55.4315442
  44.7088570  35.7416708  52.5514806  45.5549766  36.1656122  52.6949455
  44.6487208  35.0850333  53.2453369  48.6786315  41.3645292  48.9333538
  48.0495177  41.5291006  48.2309606  48.2911977  41.7786902  49.7044502
  52.5575547  42.2999730  46.2877901  51.8726585  42.6798631  45.7374935
  52.6419396  42.9095057  47.0209849  47.8588016  33.4021077  54.2095979
  47.6148948  34.1563137  53.6730255  48.1347946  33.7806424  55.0443226
  49.8126478  39.9459689  52.8873245  50.0243374  40.5891449  52.2107626
  49.7656227  39.1122005  52.4195175  47.4152707  32.5577510  49.7909817
  46.5537186  32.8558763  50.0826555  47.4415142  32.7747908  48.8590850
  44.2314277  41.1019700  46.1983623  44.6952622  41.3807403  45.4088245
  43.9671075  40.2003145  46.0156713  41.1238358  40.6491182  49.1363386
  41.6939715  41.0778450  48.4980871  41.7146470  40.3673766  49.8347572
  43.1683163  37.2242853  43.0073188  43.8707206  37.6763896  43.4747114
  42.8363791  36.5826671  43.6353081  41.6163524  35.8154609  57.3824397
  40.9862185  36.4970890  57.6159794  41.5099612  35.7037691  56.4377536
  36.9108497  35.4826405  48.3090322  36.1207551  35.7383934  47.8330432
  37.4019744  36.2974743  48.4142362  50.9272306  42.8231644  51.0595602
  51.7489750  42.4211832  50.7778284  50.9234709  42.7199879  52.0111718
  38.8623242  35.8470984  45.2673798  38.0654406  35.9589679  45.7857294
  38.6348834  36.1857637  44.4014689  44.6928910  42.3715688  53.2156313
  44.7573342  42.8336095  54.0514485  43.9839834  41.7413053  53.3438623
  35.1946200  35.7356896  50.7405312  35.4454238  36.6203906  51.0062888
  35.7305748  35.5561497  49.9680404  59.0178299  39.1670393  47.4080574
  58.2642008  38.5977791  47.2524578  59.1525841  39.1333057  48.3551208
  44.4076928  44.0383795  43.0835293  44.2722602  44.8835331  43.5120141
  44.9486740  44.2403073  42.3201227  40.8944267  30.1175375  59.7449648
  40.5011213  29.5641574  60.4197293  41.7110407  30.4285953  60.1356166
  37.8606325  41.5559233  43.6563218  38.3730845  42.3502483  43.8068783
  38.5129038  40.8585524  43.5896820  39.6701210  44.6724989  45.7385971
  39.8467838  45.5942954  45.5506955  40.4658043  44.3583409  46.1680351
  43.8112228  31.5333254  57.3369905  44.5521942  32.1340407  57.2574367
  44.0430151  30.7910892  56.7787948  38.9553566  36.7189621  55.6148135
  38.8407081  35.8174879  55.9155234  38.0998084  36.9653318  55.2632951
  46.0345404  44.6607362  57.2135635  45.5909258  43.8743740  56.8956540
  46.6962617  44.8486512  56.5479526  40.7932525  46.1903163  51.7396314
  41.3439950  46.0620227  50.9673308  39.9544001  46.4898052  51.3891207
  48.1326642  44.9410162  55.2417037  48.1145117  45.7619043  54.7497306
  49.0546562  44.8164237  55.4667178  44.5899696  42.4554291  56.0840545
  45.1228033  41.6942579  55.8539853  44.0613777  42.1627943  56.8264699
  47.7569391  27.5614357  51.6134187  47.4133660  28.4515999  51.5373297
  48.1248354  27.3716015  50.7503772  35.8255242  39.8847887  44.4322789
  36.6630464  40.2944896  44.2156496  36.0033509  38.9447330  44.4022983
  47.7219674  37.5522968  40.1206622  47.2066297  38.3227573  40.3595009
  47.4496982  36.8788104  40.7439683  45.3066785  32.3972669  45.1791860
  44.4508381  32.0079519  44.9997499  45.7193737  32.4764630  44.3191646
  46.8365931  29.9319012  49.5783420  46.3330727  29.8949147  48.7651225
  47.1296538  30.8411755  49.6380077  43.0808817  30.0157742  48.5849602
  43.9461814  29.8200551  48.2255491  43.1486326  29.7868094  49.5118958
  52.6953948  40.3055323  42.0559795  51.9183391  39.9666482  41.6114957
  53.3745429  40.3107946  41.3814760  47.5105977  35.4250060  41.9466403
  47.2056113  35.7396209  42.7976546  48.4636419  35.5031480  41.9893736
  45.9552409  41.5840284  43.5959357  45.4273770  40.8493043  43.2832594
  45.4539912  42.3614960  43.3499325  50.9345255  39.7789304  48.7126403
  50.2768929  40.4688565  48.8006532  51.7385654  40.1685736  49.0560390
  40.6871136  32.2459950  45.9565968  41.2614888  32.0235131  45.2239161
  41.2742119  32.3148644  46.7094570  49.7450714  38.1333677  46.7630345
  50.2582595  38.7663669  47.2652055  50.3951938  37.5334872  46.3973705
  41.0140724  34.2764411  39.9761854  40.1778036  34.6139097  40.2971128
  40.8745493  34.1413391  39.0388991  42.9893804  29.1201199  44.6841038
  42.3358216  28.8050216  44.0597653  42.9474278  28.4976939  45.4100861
  44.1005009  39.4020494  36.5994330  43.1932071  39.1709747  36.7985479
  44.5976041  38.6058113  36.7868311  47.0073088  48.1118001  39.5191016
  46.3334787  48.4149698  40.1275974  47.3938910  48.9147081  39.1696473
  46.2231545  35.6083132  49.0088685  45.3054106  35.8298079  48.8510374
  46.6391688  35.6829443  48.1500393  47.0066592  37.0074548  44.1391366
  47.7538411  37.5195945  43.8298488  47.2758182  36.6858601  44.9995759
  45.2793242  39.5033089  41.1218320  44.3704462  39.2192121  41.2190790
  45.3088326  39.9232167  40.2621627  50.5112510  43.1139678  44.8909488
  50.0574837  42.2730588  44.9474678  49.8806477  43.7501077  45.2284268
  49.4545429  34.0431664  46.1210155  48.7168186  33.5309050  46.4520398
  49.7072203  33.6032046  45.3093432  48.9545449  44.9516175  45.8259306
  49.2468423  45.5121232  45.1071671  49.4644070  45.2444736  46.5812465
  49.5557057  26.8207916  46.7151924  49.8615934  25.9605280  46.4277839
  50.2809662  27.4125536  46.5150918  35.8481413  37.2238603  45.1033522
  35.6505813  36.6307964  44.3784589  35.2928077  36.9190813  45.8209461
  43.8278136  37.1161709  47.2228115  43.8826746  36.1635546  47.1470592
  43.0169339  37.2721148  47.7069414  44.9769330  41.0441832  38.4606399
  44.5388760  40.3277691  38.0012036  45.7179771  41.2717947  37.8991490
  41.7670496  35.7338769  44.9818494  40.9538362  36.0332940  45.3883686
  42.2629491  35.3394458  45.6992976  43.9179074  45.7296526  46.9152759
  43.8755253  45.9557372  45.9861291  44.8341773  45.4959901  47.0638560
  47.3644708  36.1980593  53.8133388  47.7194096  36.4252067  54.6727854
  48.0116839  36.5298970  53.1910643  53.0942445  39.3199029  44.5182717
  52.9560344  39.5100625  43.5903906  52.7378664  40.0818412  44.9750768
  41.2584571  33.3057125  50.5979729  41.8983950  33.1645884  49.9002693
  40.4262102  33.0191638  50.2218331  53.1211825  41.3875556  49.5293989
  53.5548331  41.2950845  50.3777043  53.8343405  41.3633057  48.8914005
  42.0344875  42.6059555  46.7114722  42.8285474  42.1109875  46.5097297
  41.3236567  42.0777418  46.3482427  46.8539720  44.9877651  51.0627089
  46.9076742  45.5568587  51.8304805  45.9854501  45.1579536  50.6981126
  38.3427639  36.7502637  42.7874474  37.4125227  36.6887092  43.0044436
  38.4385111  36.2278589  41.9911116  38.2613188  33.2757450  45.3752716
  38.5220005  34.1902783  45.2661876  39.0830360  32.8081892  45.5249329
  39.7338113  34.6895207  52.5451541  40.4061166  34.4812569  51.8964189
  38.9067899  34.4917293  52.1056773  53.9827374  41.4299257  52.0626874
  54.1763264  42.3345068  52.3086149  53.8827992  40.9706676  52.8965459
  45.6363685  31.3157148  54.5617201  44.9891600  32.0147097  54.4681678
  46.4064700  31.7493292  54.9293450  49.0442483  41.5806000  57.6367755
  48.8927989  41.3516551  56.7197838  49.0347162  42.5376601  57.6499100
  45.8127819  39.1537913  52.6214021  46.7419879  39.3049072  52.4482988
  45.3918849  39.2421933  51.7662668  44.6116151  43.1788577  50.3912559
  44.4727237  42.8107361  51.2638497  43.8230747  43.6936216  50.2196517
  45.2064303  48.2797673  41.7338095  45.3816059  47.8085717  42.5483718
  44.5197091  48.9063440  41.9619356  46.1621366  42.5570180  47.7801397
  45.8271199  42.5170950  48.6759046  45.6625312  41.8914896  47.3071807
  40.1365610  37.9637810  53.3053978  39.9985408  37.2318049  53.9065517
  41.0470534  37.8746710  53.0238165  49.0980558  39.9026214  38.0538456
  48.4809729  39.1773042  37.9571509  48.6297046  40.6635574  37.7105530
  42.7647911  37.6757769  52.7937657  43.4747529  37.0350961  52.7524276
  42.7217219  37.9270664  53.7163838  50.7534690  44.6125122  55.7144237
  50.6947236  43.9284342  55.0474820  51.1554208  45.3544112  55.2624863
  41.4776845  34.6622987  54.6133297  40.9414202  34.2113725  55.2654893
  40.8893553  34.7968896  53.8703761  39.7725388  51.4287036  48.5077955
  40.0121987  52.0605560  49.1856974  38.9294585  51.0775076  48.7943315
  40.8879104  34.1211638  37.1759760  40.0108570  34.0000439  36.8122007
  41.3636857  33.3297717  36.9238649  50.7552097  42.5764706  53.9458216
  49.8678876  42.2390628  54.0684615  51.3250648  41.8447738  54.1826982
  32.4081244  38.9088798  47.2701268  33.0952284  38.5950528  46.6822283
  32.2529373  39.8130163  46.9968519  37.2115966  33.7978995  51.6986291
  37.1274155  33.1904664  50.9636701  36.3898672  34.2888013  51.6995788
  44.2853250  47.2366159  50.9119459  44.2123422  48.0421130  51.4238764
  43.8430643  47.4358124  50.0867481  44.0743030  46.4737929  44.4222281
  43.2910552  47.0159609  44.5160505  44.7735775  46.9911908  44.8216522
  47.3839680  32.2832558  47.0656486  47.8808379  31.5302520  46.7457557
  46.6126661  32.3196875  46.4999696  55.2369437  37.9872924  48.7074778
  55.2259314  38.8697639  48.3368711  54.3686817  37.6344474  48.5129315
  46.7451934  47.1352993  53.0677618  47.4579906  47.7700457  52.9953520
  46.2541962  47.2316859  52.2517620  48.4669461  41.0404245  44.6394910
  47.5325739  41.1605708  44.4699614  48.6446129  40.1376712  44.3754920
  43.9674649  34.4249941  46.7928171  43.5972436  33.8720981  47.4809077
  44.4633741  33.8208075  46.2403171  51.8542012  36.8821565  45.1744944
  52.3202464  37.7149556  45.1005247  52.3049512  36.4166546  45.8790202
  41.7963847  44.8847436  53.8883189  42.4973307  45.5183919  54.0412583
  41.3258962  45.2262168  53.1278828  49.9218243  43.2265386  42.1731096
  50.1978087  43.1121980  43.0824970  49.0522742  42.8282871  42.1343269
  49.8258675  29.2502152  49.2135845  48.9121755  29.4806378  49.3818052
  50.2551776  29.3340596  50.0649878  49.5965133  37.4392044  51.7135739
  48.9436583  37.6867951  51.0588192  49.9745513  36.6256182  51.3798217
  46.5572307  47.4751737  45.8163910  46.7394702  46.6573393  46.2791662
  47.3805293  47.6919429  45.3788800  46.8914473  46.4019922  43.0778958
  47.4202239  45.8912376  42.4649120  47.1542692  46.0862452  43.9424491
  45.6452706  38.1811855  58.2001776  44.9693343  38.0805984  58.8704152
  46.4680340  38.0251068  58.6637774  37.3931565  44.4183791  50.8214292
  37.9785002  43.6727479  50.9542196  37.1956404  44.7287748  51.7050955
  40.2470221  47.4535039  45.8376734  39.5780596  47.9381166  45.3540774
  40.1083090  47.7004259  46.7520113  31.9849220  36.9889391  49.5418735
  32.0233320  36.4552982  50.3355853  31.4789513  36.4624597  48.9229712
  44.3875489  49.4878782  52.4359392  44.9393797  49.6510404  53.2008478
  44.7281683  50.0783220  51.7639417  39.3639982  31.8353932  53.0381277
  39.4281309  32.6968763  52.6258675  39.3007103  31.2227934  52.3053636
  38.8392255  33.9077064  56.6854311  39.4664294  33.5254142  57.2991836
  37.9820174  33.6891266  57.0510004  49.2386363  44.3140040  58.2908047
  49.7826267  44.9269998  57.7963002  48.6573208  44.8719618  58.8075060
  35.6157798  35.7153494  42.6172666  35.9111239  34.8064172  42.5639720
  34.7145833  35.6941233  42.2953668  47.5243876  47.4360758  49.4223075
  47.3995016  46.6350497  48.9134020  48.1822968  47.9306951  48.9337044
  39.1452045  33.7909490  48.6000215  38.4238630  34.4045458  48.4607688
  39.9345300  34.3267255  48.5216861  49.5878785  45.2369778  51.0502625
  48.6409120  45.1175129  50.9780951  49.9361558  44.3492276  51.1328886
  41.9478358  31.1263917  54.8740866  42.4712760  31.3726213  55.6367176
  41.7290691  31.9583951  54.4544004  37.3445639  33.3967591  42.7411991
  37.0158345  32.5164970  42.5587097  37.6985010  33.3415260  43.6288381
  46.5925218  45.0322494  47.2506977  46.4450181  44.1039201  47.4314547
  47.4178712  45.0542585  46.7664052  40.4587462  33.6840561  43.1087469
  40.7983535  34.2126482  42.3866077  40.9059583  34.0220967  43.8846035
  50.1959340  45.8551053  48.3371850  51.1205887  45.6493914  48.1996301
  50.0274643  45.6067454  49.2461191  43.1530903  32.0677612  52.5590537
  42.8127724  31.2685425  52.9611217  42.4469909  32.3679323  51.9867370
  43.8047375  29.1526924  51.0117860  44.6273444  28.6787402  50.8896750
  44.0485439  29.9317408  51.5116546  42.4455610  32.1815183  41.3080762
  43.1663972  32.5596435  40.8044479  41.8220914  32.9004059  41.4115740
  46.5886732  32.8860332  42.2439094  46.8050347  33.7684969  41.9427922
  46.1080800  32.4946545  41.5144736  41.3285954  35.8446045  48.8209839
  41.1830534  36.1586348  49.7134120  40.8511157  36.4630945  48.2680737
  43.1882337  32.8348593  48.8690728  43.1743905  31.9389686  48.5323026
  43.9054765  32.8419257  49.5029014  45.0408467  33.2685933  50.9143856
  44.7826245  34.1903004  50.9128186  44.5093508  32.8716368  51.6044320
  49.9854656  46.3736720  43.6933941  50.1591534  45.8083143  42.9407793
  50.4783547  47.1737615  43.5113431  35.8031616  38.3851389  51.7597500
  35.2585084  39.1611197  51.8917774  36.6810966  38.7322194  51.6016621
  42.5919233  31.7162973  44.1378298  42.7135144  30.7879619  44.3369186
  42.3021275  31.7301659  43.2256614  45.4610423  29.4017883  47.2745018
  45.4832120  29.4657217  46.3196998  45.8778482  28.5622392  47.4685524
  55.8394047  39.1373143  45.3124241  56.2825193  38.3880468  44.9143364
  54.9620558  39.1283279  44.9297973  50.9729829  45.6903485  40.7930839
  51.6680733  46.3110177  41.0118154  51.3152979  44.8398836  41.0683217
  36.5897638  37.5121285  54.6527657  35.8479374  37.6603921  55.2392287
  36.2690382  37.7729551  53.7894406  52.8721252  43.1403190  42.3218170
  53.3972576  43.4790463  41.5967490  52.7843604  42.2050205  42.1381305
  44.5341300  47.0537264  54.4508047  44.8428427  46.8086410  55.3230746
  45.3316782  47.2583902  53.9626917  44.5561912  49.2075173  46.6813423
  44.1166903  48.7151552  47.3746280  45.3070029  48.6648141  46.4405498
  37.0354251  45.3986714  46.6838051  37.8612271  45.0990486  46.3036695
  36.6848303  44.6294337  47.1327840  42.0035785  44.7513182  48.7535725
  41.3815794  44.0883887  48.4537953  42.6740652  44.7774314  48.0709373
  35.2362857  43.3173041  47.6426985  34.3994765  42.8895215  47.4610986
  35.2086502  43.5105484  48.5797776  42.0760312  33.2294970  58.3468231
  42.1248468  34.1057093  57.9646001  42.6182826  32.6872363  57.7739874
  52.5615158  43.7736094  57.6269368  51.7710702  43.7560233  57.0873867
  52.3248512  44.3124387  58.3818405  52.6813033  40.6228560  54.9402097
  52.7311038  40.4578567  55.8817619  52.5726956  39.7555819  54.5499977
  41.5649292  43.3017106  42.2294185  41.7137412  43.9852570  41.5760858
  42.3715735  43.2822196  42.7443641  49.9716795  36.6059488  56.2561403
  50.8726658  36.4665953  55.9645401  50.0464770  36.7713943  57.1959581
  44.3059601  33.9826343  55.1014590  43.4362910  34.2759909  54.8297178
  44.5419081  34.5666788  55.8221853  54.1831230  43.0425502  55.1844118
  53.8916038  43.4055482  56.0207579  53.5703361  42.3292510  55.0057450
  55.3826912  40.6078381  47.7046688  56.2173803  41.0468185  47.8684249
  55.5186041  40.1317035  46.8854934  52.4318418  38.1658116  53.6524176
  52.9072540  38.3585762  52.8443027  51.5083983  38.2217302  53.4067560
  39.3201925  39.3282283  43.2355254  39.0747966  38.4244613  43.4335465
  39.4897839  39.3299434  42.2934732  47.0098634  30.2005960  52.6180010
  47.5280578  30.9366987  52.2926499  46.6553767  30.5069953  53.4526769
  38.5897572  35.0610641  40.7341416  37.8966817  35.1354996  40.0781452
  38.3449324  34.2970985  41.2562933  47.2611229  26.6206242  48.1380907
  47.5412982  25.9529431  48.7641333  48.0461835  26.8135338  47.6255570
  45.0644697  45.7965236  39.7005933  44.4918664  46.4155423  39.2476405
  45.6377491  46.3464598  40.2345855  51.1320087  35.0423876  51.8852482
  52.0837510  35.1421974  51.9064706  50.9623537  34.2502145  52.3950566
  49.1534466  32.1279459  52.0711883  48.5584399  32.4084472  51.3758371
  48.8684163  32.6173360  52.8428624  48.2841957  46.0802386  40.8314515
  49.2172630  46.0147948  41.0347391  48.1965170  46.9158653  40.3729048
  50.9129974  45.3968257  37.7918463  50.8343605  45.0628120  38.6854221
  51.7339640  45.8890025  37.7909935  53.6108165  38.2629996  50.9994781
  53.5784485  37.3245997  51.1854465  54.2208788  38.3414033  50.2660606
  45.4491496  37.1326049  37.0421985  46.3950600  37.0032257  37.1110403
  45.0705741  36.3940711  37.5191414  53.7602653  35.0541039  51.0453065
  53.2441702  34.2699496  50.8582993  54.6442602  34.7259756  51.2099584
  51.4213380  28.7982055  47.0048877  51.2238201  28.4897143  47.8892209
  52.0313086  29.5243694  47.1346807  59.4284715  39.3246003  50.1400818
  60.1588103  39.0631291  50.7008521  58.8191660  38.5874725  50.1802886
  57.5100012  37.4653865  50.7375269  56.7833175  37.3309830  50.1291761
  57.0947299  37.7730694  51.5431987  45.3330188  41.1843795  58.5022642
  46.2533198  41.3622394  58.6962689  45.2979771  40.2399840  58.3502342
  43.6334413  35.0576025  36.9776871  42.7265868  34.7609138  37.0539584
  43.9110394  34.7605843  36.1111157  34.5512353  36.3782389  47.4275917
  34.2315137  35.5247697  47.1350291  34.0045781  36.5930967  48.1833884
  38.3292261  39.0944830  51.1445424  38.5478270  40.0261938  51.1633457
  38.7418034  38.7352804  51.9300227  45.2496478  29.6012915  43.1321112
  44.4397207  29.2560000  43.5076358  45.9380895  29.2920459  43.7208723
  47.1787027  28.6790962  44.7545409  47.7318065  29.0986415  45.4135432
  47.4157113  27.7526710  44.7968365  43.2020126  34.6678035  60.5348172
  43.1016853  35.6172392  60.4660264  42.9841668  34.3396274  59.6624243
  42.4033197  31.9162961  37.1188850  43.2652361  32.2417859  37.3784667
  42.5883542  31.1294456  36.6061916  34.4200613  39.9985300  49.3969039
  33.7264085  39.5839253  48.8838993  35.1673604  40.0405837  48.8002457
  50.5565834  30.7891487  44.2624073  49.9764503  31.4476291  43.8802125
  50.2901767  29.9668832  43.8511490  49.0069400  30.1896545  46.4645393
  49.5069179  30.3013079  45.6559712  49.6505008  29.8857598  47.1046202
  43.0651396  38.0975174  59.3513234  42.5818478  38.8975534  59.5577123
  43.1512335  38.1083119  58.3980678  36.3337356  39.9303554  47.2735053
  36.3108044  40.0291241  46.3216937  36.6437992  40.7768705  47.5952220
  38.9924734  41.9879709  51.3881668  39.9467987  41.9563651  51.3211599
  38.7937257  41.5270333  52.2031894  39.5824116  40.5580825  53.9552466
  40.4017005  41.0524904  53.9787303  39.8560923  39.6412793  53.9270033
  49.3390712  32.9491577  43.3180421  48.4516567  33.2341228  43.1000616
  49.7544701  32.7885341  42.4707698  52.6905248  32.9738098  47.0334760
  53.4665638  33.4634551  47.3059377  51.9653382  33.3996153  47.4906630
  55.1277807  33.6865718  48.0908701  55.7222297  33.4461454  47.3802009
  55.2004390  32.9672848  48.7182237  37.3474962  47.5299329  48.4051866
  37.2129430  46.7699729  47.8389864  36.9307025  48.2540228  47.9380655
  48.4833925  42.7136252  37.4128441  49.1869775  42.9186255  38.0286097
  47.7596574  43.2813014  37.6777525  49.3131736  38.4646113  43.5330711
  49.2566937  38.9214665  42.6938344  49.8660078  37.7036798  43.3553554
  53.1236542  34.2535845  44.3580831  52.8673476  33.8532481  45.1889038
  52.4989410  34.9679639  44.2330970  57.4348879  36.9931918  46.8652122
  56.8748437  37.0625108  47.6383684  56.8292383  36.8172903  46.1451618
  40.5044088  48.4268646  48.6170308  40.3876472  49.3714078  48.5148999
  39.6836534  48.1242207  49.0056108  50.3920623  43.1518781  39.4626901
  51.2266227  42.7199980  39.2804376  50.2304966  42.9800795  40.3903796
  50.0466515  39.6550895  40.8283240  49.9915319  39.4895166  39.8871685
  49.4212570  40.3626927  40.9845430  34.8359030  34.8918959  54.6544663
  35.4817893  34.3817913  55.1431888  34.6276181  35.6287641  55.2288088
  47.3612422  41.9599806  60.1536803  48.2303582  42.1340459  59.7923438
  46.8819174  42.7794223  60.0312533  43.3562640  29.1559004  40.4068559
  43.3441310  30.1000843  40.5636830  44.2486062  28.9729149  40.1128020
  41.5298602  49.0796907  51.8326237  42.4325849  49.1120518  52.1492732
  41.3035972  48.1497358  51.8472573  43.2852204  47.8327894  48.4936315
  42.3347835  47.8329756  48.3800688  43.5884690  47.0860629  47.9772350
  47.1714760  25.7501780  44.6614496  46.4047156  25.1960267  44.8071178
  47.5825465  25.8223649  45.5228647  39.1756521  32.0386576  58.7519677
  40.0387982  31.6823381  58.9623001  38.6021932  31.7000471  59.4395081
  59.0204898  53.6688432  49.5582078  59.6583308  53.5495180  48.8545418
  58.9025741  54.6169276  49.6170030  55.8294604  53.6215860  49.4943603
  55.4913116  53.5056925  48.6064137  56.6984372  53.2207026  49.4744609
  51.6881420  55.4751337  45.4840493  51.1246285  55.3841274  44.7156781
  51.5733815  54.6551241  45.9642986  56.3114387  54.7750712  55.4529808
  56.3003028  54.3803510  54.5810312  56.4735027  54.0416785  56.0463580
  49.2345852  56.9702528  48.3224714  50.0267144  56.6293353  47.9071013
  49.4742502  57.0797504  49.2426867  57.2680979  59.1422305  40.7954958
  56.6168958  59.7276385  40.4088972  58.0625341  59.6728499  40.8549996
  51.1936606  56.2311442  41.1942093  51.9667482  55.6840429  41.0554969
  51.5462005  57.0955691  41.4056554  53.0321648  57.5587824  54.4008992
  52.7411514  58.4633455  54.2855658  53.6678633  57.6004352  55.1153062
  53.9577855  54.9364673  50.9910352  54.5541427  54.7120695  50.2767315
  54.0152827  54.1949418  51.5935800  53.5302883  52.3904108  38.8260543
  53.7828404  51.8685629  38.0644006  52.5927443  52.2270253  38.9287226
  58.7456244  56.8312737  41.3323943  58.1102077  56.9047363  42.0444847
  58.4153650  57.4206335  40.6543022  53.2499172  54.2932214  41.0284918
  53.1335430  53.6177117  41.6966002  53.3601432  53.8064588  40.2117071
  55.5930713  53.7542361  44.7331607  55.2288920  53.2272982  45.4444528
  56.4497829  53.3640830  44.5598092  61.4980014  45.0436694  51.9962873
  61.1663339  45.9132104  51.7724088  60.9025627  44.7272978  52.6756903
  57.9911533  57.2449240  51.3958786  57.6912256  58.1474278  51.2874593
  57.6462593  56.9781423  52.2479939  51.4424015  53.6963036  47.4295490
  50.5174511  53.5639250  47.6373182  51.6908428  54.4757256  47.9265433
  61.3908677  49.7631780  49.0756223  60.4825554  49.6947188  48.7814984
  61.3396273  50.2403725  49.9038049  48.8032826  53.3396310  48.2639279
  48.9325207  53.5930789  49.1778691  48.1230277  53.9324018  47.9443934
  52.9732313  64.0093560  44.3629753  52.8956343  64.9601385  44.4418234
  52.3693957  63.6639432  45.0204680  59.1951255  56.1336019  55.1781249
  59.6034611  55.6918430  54.4335881  58.4728516  55.5588647  55.4315442
  55.5482325  51.0708626  52.5514806  56.3943520  51.4948039  52.6949455
  55.4880963  50.4142250  53.2453369  59.5180069  56.6937210  48.9333538
  58.8888932  56.8582924  48.2309606  59.1305732  57.1078819  49.7044502
  58.6981770  48.7312994  54.2095979  58.4542702  49.4855055  53.6730255
  58.9741701  49.1098342  55.0443226  60.6520233  55.2751607  52.8873245
  60.8637128  55.9183367  52.2107626  60.6049981  54.4413923  52.4195175
  58.2546462  47.8869427  49.7909817  57.3930941  48.1850681  50.0826555
  58.2808897  48.1039826  48.8590850  55.0708031  56.4311618  46.1983623
  55.5346377  56.7099321  45.4088245  54.8064829  55.5295062  46.0156713
  51.9632112  55.9783099  49.1363386  52.5333469  56.4070368  48.4980871
  52.5540224  55.6965684  49.8347572  47.7502251  50.8118323  48.3090322
  46.9601305  51.0675851  47.8330432  48.2413499  51.6266661  48.4142362
  61.7666061  58.1523562  51.0595602  62.5883505  57.7503749  50.7778284
  61.7628464  58.0491796  52.0111718  49.7016997  51.1762902  45.2673798
  48.9048160  51.2881596  45.7857294  49.4742589  51.5149554  44.4014689
  55.5322664  57.7007605  53.2156313  55.5967097  58.1628013  54.0514485
  54.8233588  57.0704970  53.3438623  46.0339954  51.0648813  50.7405312
  46.2847993  51.9495823  51.0062888  46.5699503  50.8853415  49.9680404
  69.8572054  54.4962311  47.4080574  69.1035762  53.9269709  47.2524578
  69.9919595  54.4624975  48.3551208  55.2470682  59.3675713  43.0835293
  55.1116357  60.2127249  43.5120141  55.7880495  59.5694990  42.3201227
  48.7000079  56.8851151  43.6563218  49.2124600  57.6794401  43.8068783
  49.3522792  56.1877441  43.5896820  50.5094964  60.0016907  45.7385971
  50.6861592  60.9234872  45.5506955  51.3051798  59.6875326  46.1680351
  54.6505983  46.8625172  57.3369905  55.3915696  47.4632325  57.2574367
  54.8823905  46.1202810  56.7787948  49.7947321  52.0481539  55.6148135
  49.6800836  51.1466796  55.9155234  48.9391838  52.2945236  55.2632951
  56.8739158  59.9899279  57.2135635  56.4303013  59.2035658  56.8956540
  57.5356372  60.1778430  56.5479526  51.6326280  61.5195081  51.7396314
  52.1833705  61.3912144  50.9673308  50.7937755  61.8189970  51.3891207
  58.9720396  60.2702079  55.2417037  58.9538872  61.0910960  54.7497306
  59.8940317  60.1456154  55.4667178  55.4293451  57.7846209  56.0840545
  55.9621787  57.0234497  55.8539853  54.9007532  57.4919861  56.8264699
  58.5963146  42.8906275  51.6134187  58.2527415  43.7807916  51.5373297
  58.9642108  42.7007932  50.7503772  46.6648996  55.2139805  44.4322789
  47.5024218  55.6236814  44.2156496  46.8427264  54.2739247  44.4022983
  56.1460539  47.7264587  45.1791860  55.2902136  47.3371437  44.9997499
  56.5587491  47.8056547  44.3191646  57.6759686  45.2610930  49.5783420
  57.1724482  45.2241065  48.7651225  57.9690293  46.1703673  49.6380077
  53.9202572  45.3449660  48.5849602  54.7855569  45.1492468  48.2255491
  53.9880081  45.1160011  49.5118958  63.5347702  55.6347240  42.0559795
  62.7577145  55.2958400  41.6114957  64.2139183  55.6399864  41.3814760
  56.7946163  56.9132201  43.5959357  56.2667525  56.1784961  43.2832594
  56.2933666  57.6906878  43.3499325  61.7739009  55.1081222  48.7126403
  61.1162684  55.7980483  48.8006532  62.5779409  55.4977654  49.0560390
  51.5264891  47.5751868  45.9565968  52.1008643  47.3527049  45.2239161
  52.1135873  47.6440562  46.7094570  60.5844468  53.4625594  46.7630345
  61.0976350  54.0955586  47.2652055  61.2345692  52.8626790  46.3973705
  51.8534478  49.6056329  39.9761854  51.0171790  49.9431015  40.2971128
  51.7139248  49.4705308  39.0388991  53.8287559  44.4493116  44.6841038
  53.1751971  44.1342134  44.0597653  53.7868033  43.8268857  45.4100861
  54.9398763  54.7312411  36.5994330  54.0325825  54.5001665  36.7985479
  55.4369795  53.9350031  36.7868311  57.8466842  63.4409919  39.5191016
  57.1728541  63.7441615  40.1275974  58.2332664  64.2438999  39.1696473
  57.0625299  50.9375050  49.0088685  56.1447860  51.1589997  48.8510374
  57.4785443  51.0121360  48.1500393  59.7939204  60.2808093  45.8259306
  60.0862178  60.8413150  45.1071671  60.3037824  60.5736654  46.5812465
  46.6875167  52.5530520  45.1033522  46.4899567  51.9599881  44.3784589
  46.1321831  52.2482731  45.8209461  54.6671891  52.4453627  47.2228115
  54.7220501  51.4927463  47.1470592  53.8563093  52.6013066  47.7069414
  55.8163085  56.3733750  38.4606399  55.3782515  55.6569609  38.0012036
  56.5573526  56.6009865  37.8991490  52.6064251  51.0630687  44.9818494
  51.7932116  51.3624857  45.3883686  53.1023245  50.6686375  45.6992976
  54.7572829  61.0588444  46.9152759  54.7149008  61.2849290  45.9861291
  55.6735528  60.8251818  47.0638560  58.2038463  51.5272511  53.8133388
  58.5587850  51.7543984  54.6727854  58.8510594  51.8590888  53.1910643
  63.9336200  54.6490947  44.5182717  63.7954098  54.8392543  43.5903906
  63.5772418  55.4110330  44.9750768  52.0978326  48.6349042  50.5979729
  52.7377705  48.4937801  49.9002693  51.2655856  48.3483556  50.2218331
  52.8738630  57.9351473  46.7114722  53.6679228  57.4401793  46.5097297
  52.1630322  57.4069336  46.3482427  57.6933474  60.3169568  51.0627089
  57.7470496  60.8860504  51.8304805  56.8248255  60.4871453  50.6981126
  49.1821393  52.0794554  42.7874474  48.2518981  52.0179010  43.0044436
  49.2778865  51.5570507  41.9911116  49.1006942  48.6049367  45.3752716
  49.3613759  49.5194700  45.2661876  49.9224114  48.1373810  45.5249329
  50.5731867  50.0187124  52.5451541  51.2454921  49.8104487  51.8964189
  49.7461654  49.8209210  52.1056773  64.8221129  56.7591175  52.0626874
  65.0157019  57.6636985  52.3086149  64.7221747  56.2998594  52.8965459
  56.4757439  46.6449065  54.5617201  55.8285354  47.3439015  54.4681678
  57.2458455  47.0785209  54.9293450  56.6521574  54.4829830  52.6214021
  57.5813634  54.6340990  52.4482988  56.2312604  54.5713851  51.7662668
  55.4509906  58.5080495  50.3912559  55.3120991  58.1399279  51.2638497
  54.6624502  59.0228134  50.2196517  56.0458058  63.6089591  41.7338095
  56.2209813  63.1377634  42.5483718  55.3590846  64.2355357  41.9619356
  57.0015121  57.8862097  47.7801397  56.6664953  57.8462867  48.6759046
  56.5019066  57.2206813  47.3071807  50.9759365  53.2929727  53.3053978
  50.8379163  52.5609966  53.9065517  51.8864288  53.2038627  53.0238165
  53.6041665  53.0049687  52.7937657  54.3141284  52.3642879  52.7524276
  53.5610973  53.2562582  53.7163838  52.3170599  49.9914905  54.6133297
  51.7807956  49.5405643  55.2654893  51.7287308  50.1260813  53.8703761
  50.6119143  66.7578954  48.5077955  50.8515741  67.3897478  49.1856974
  49.7688339  66.4066994  48.7943315  51.7272858  49.4503556  37.1759760
  50.8502325  49.3292357  36.8122007  52.2030611  48.6589634  36.9238649
  61.5945851  57.9056624  53.9458216  60.7072630  57.5682546  54.0684615
  62.1644402  57.1739655  54.1826982  43.2474998  54.2380716  47.2701268
  43.9346038  53.9242446  46.6822283  43.0923127  55.1422080  46.9968519
  48.0509721  49.1270912  51.6986291  47.9667909  48.5196582  50.9636701
  47.2292427  49.6179931  51.6995788  55.1247005  62.5658076  50.9119459
  55.0517176  63.3713048  51.4238764  54.6824398  62.7650042  50.0867481
  54.9136784  61.8029846  44.4222281  54.1304306  62.3451527  44.5160505
  55.6129529  62.3203826  44.8216522  58.2233434  47.6124476  47.0656486
  58.7202134  46.8594438  46.7457557  57.4520416  47.6488792  46.4999696
  66.0763192  53.3164841  48.7074778  66.0653068  54.1989557  48.3368711
  65.2080571  52.9636392  48.5129315  57.5845688  62.4644910  53.0677618
  58.2973660  63.0992375  52.9953520  57.0935717  62.5608776  52.2517620
  59.3063215  56.3696163  44.6394910  58.3719494  56.4897625  44.4699614
  59.4839884  55.4668630  44.3754920  54.8068403  49.7541859  46.7928171
  54.4366191  49.2012899  47.4809077  55.3027496  49.1499992  46.2403171
  52.6357602  60.2139354  53.8883189  53.3367061  60.8475837  54.0412583
  52.1652717  60.5554085  53.1278828  60.7611998  58.5557304  42.1731096
  61.0371841  58.4413898  43.0824970  59.8916496  58.1574788  42.1343269
  60.6652429  44.5794069  49.2135845  59.7515509  44.8098296  49.3818052
  61.0945531  44.6632513  50.0649878  60.4358888  52.7683961  51.7135739
  59.7830338  53.0159869  51.0588192  60.8139268  51.9548099  51.3798217
  57.3966062  62.8043654  45.8163910  57.5788456  61.9865310  46.2791662
  58.2199048  63.0211347  45.3788800  57.7308227  61.7311840  43.0778958
  58.2595994  61.2204294  42.4649120  57.9936447  61.4154370  43.9424491
  48.2325320  59.7475709  50.8214292  48.8178757  59.0019397  50.9542196
  48.0350158  60.0579666  51.7050955  51.0863975  62.7826956  45.8376734
  50.4174350  63.2673084  45.3540774  50.9476845  63.0296177  46.7520113
  42.8242975  52.3181309  49.5418735  42.8627074  51.7844900  50.3355853
  42.3183267  51.7916515  48.9229712  55.2269244  64.8170700  52.4359392
  55.7787552  64.9802321  53.2008478  55.5675437  65.4075138  51.7639417
  50.2033737  47.1645850  53.0381277  50.2675063  48.0260680  52.6258675
  50.1400857  46.5519851  52.3053636  49.6786009  49.2368982  56.6854311
  50.3058048  48.8546059  57.2991836  48.8213928  49.0183184  57.0510004
  60.0780118  59.6431957  58.2908047  60.6220022  60.2561916  57.7963002
  59.4966963  60.2011536  58.8075060  46.4551552  51.0445411  42.6172666
  46.7504993  50.1356090  42.5639720  45.5539588  51.0233151  42.2953668
  58.3637631  62.7652675  49.4223075  58.2388770  61.9642415  48.9134020
  59.0216722  63.2598869  48.9337044  49.9845799  49.1201408  48.6000215
  49.2632385  49.7337375  48.4607688  50.7739055  49.6559173  48.5216861
  60.4272539  60.5661695  51.0502625  59.4802875  60.4467047  50.9780951
  60.7755312  59.6784193  51.1328886  52.7872113  46.4555834  54.8740866
  53.3106514  46.7018131  55.6367176  52.5684446  47.2875869  54.4544004
  48.1839394  48.7259509  42.7411991  47.8552100  47.8456888  42.5587097
  48.5378764  48.6707178  43.6288381  57.4318973  60.3614412  47.2506977
  57.2843935  59.4331119  47.4314547  58.2572466  60.3834502  46.7664052
  51.2981217  49.0132479  43.1087469  51.6377289  49.5418400  42.3866077
  51.7453337  49.3512885  43.8846035  53.9924658  47.3969529  52.5590537
  53.6521478  46.5977342  52.9611217  53.2863664  47.6971240  51.9867370
  54.6441129  44.4818842  51.0117860  55.4667199  44.0079320  50.8896750
  54.8879193  45.2609326  51.5116546  52.1679708  51.1737962  48.8209839
  52.0224289  51.4878266  49.7134120  51.6904912  51.7922863  48.2680737
  54.0276091  48.1640510  48.8690728  54.0137660  47.2681604  48.5323026
  54.7448519  48.1711174  49.5029014  55.8802222  48.5977851  50.9143856
  55.6220000  49.5194921  50.9128186  55.3487262  48.2008285  51.6044320
  60.8248411  61.7028638  43.6933941  60.9985288  61.1375060  42.9407793
  61.3177302  62.5029533  43.5113431  46.6425370  53.7143307  51.7597500
  46.0978838  54.4903115  51.8917774  47.5204720  54.0614111  51.6016621
  53.4312987  47.0454891  44.1378298  53.5528898  46.1171537  44.3369186
  53.1415029  47.0593577  43.2256614  56.3004177  44.7309801  47.2745018
  56.3225874  44.7949134  46.3196998  56.7172236  43.8914310  47.4685524
  66.6787802  54.4665061  45.3124241  67.1218948  53.7172386  44.9143364
  65.8014312  54.4575197  44.9297973  61.8123583  61.0195402  40.7930839
  62.5074488  61.6402095  41.0118154  62.1546733  60.1690753  41.0683217
  47.4291392  52.8413203  54.6527657  46.6873128  52.9895838  55.2392287
  47.1084137  53.1021469  53.7894406  63.7115006  58.4695108  42.3218170
  64.2366330  58.8082380  41.5967490  63.6237359  57.5342123  42.1381305
  55.3735055  62.3829181  54.4508047  55.6822181  62.1378328  55.3230746
  56.1710537  62.5875820  53.9626917  55.3955667  64.5367091  46.6813423
  54.9560657  64.0443470  47.3746280  56.1463784  63.9940059  46.4405498
  47.8748006  60.7278632  46.6838051  48.7006026  60.4282404  46.3036695
  47.5242058  59.9586254  47.1327840  52.8429539  60.0805100  48.7535725
  52.2209548  59.4175805  48.4537953  53.5134406  60.1066232  48.0709373
  46.0756611  58.6464958  47.6426985  45.2388519  58.2187133  47.4610986
  46.0480256  58.8397402  48.5797776  52.4043046  58.6309023  42.2294185
  52.5531166  59.3144488  41.5760858  53.2109489  58.6114113  42.7443641
  55.1453355  49.3118261  55.1014590  54.2756664  49.6051827  54.8297178
  55.3812835  49.8958705  55.8221853  65.0224984  58.3717419  55.1844118
  64.7309792  58.7347400  56.0207579  64.4097115  57.6584428  55.0057450
  66.2220666  55.9370299  47.7046688  67.0567558  56.3760103  47.8684249
  66.3579795  55.4608952  46.8854934  63.2712172  53.4950034  53.6524176
  63.7466294  53.6877680  52.8443027  62.3477738  53.5509220  53.4067560
  50.1595679  54.6574201  43.2355254  49.9141721  53.7536531  43.4335465
  50.3291594  54.6591351  42.2934732  57.8492389  45.5297877  52.6180010
  58.3674333  46.2658904  52.2926499  57.4947522  45.8361871  53.4526769
  49.4291327  50.3902559  40.7341416  48.7360571  50.4646914  40.0781452
  49.1843078  49.6262902  41.2562933  58.1004983  41.9498160  48.1380907
  58.3806737  41.2821349  48.7641333  58.8855590  42.1427256  47.6255570
  55.9038452  61.1257154  39.7005933  55.3312419  61.7447341  39.2476405
  56.4771245  61.6756516  40.2345855  61.9713841  50.3715794  51.8852482
  62.9231264  50.4713892  51.9064706  61.8017292  49.5794063  52.3950566
  59.9928221  47.4571377  52.0711883  59.3978153  47.7376390  51.3758371
  59.7077918  47.9465278  52.8428624  59.1235711  61.4094304  40.8314515
  60.0566384  61.3439866  41.0347391  59.0358924  62.2450571  40.3729048
  61.7523728  60.7260174  37.7918463  61.6737360  60.3920038  38.6854221
  62.5733395  61.2181942  37.7909935  64.4501919  53.5921914  50.9994781
  64.4178239  52.6537914  51.1854465  65.0602543  53.6705950  50.2660606
  56.2885250  52.4617967  37.0421985  57.2344355  52.3324175  37.1110403
  55.9099495  51.7232629  37.5191414  54.4728167  50.3867943  36.9776871
  53.5659623  50.0901056  37.0539584  54.7504148  50.0897761  36.1111157
  45.3906108  51.7074306  47.4275917  45.0708892  50.8539615  47.1350291
  44.8439536  51.9222885  48.1833884  49.1686015  54.4236747  51.1445424
  49.3872025  55.3553855  51.1633457  49.5811789  54.0644722  51.9300227
  56.0890233  44.9304833  43.1321112  55.2790961  44.5851918  43.5076358
  56.7774650  44.6212376  43.7208723  58.0180781  44.0082880  44.7545409
  58.5711820  44.4278333  45.4135432  58.2550868  43.0818628  44.7968365
  45.2594368  55.3277218  49.3969039  44.5657839  54.9131171  48.8838993
  46.0067359  55.3697754  48.8002457  59.8463155  45.5188462  46.4645393
  60.3462933  45.6304997  45.6559712  60.4898763  45.2149515  47.1046202
  47.1731110  55.2595472  47.2735053  47.1501798  55.3583159  46.3216937
  47.4831747  56.1060622  47.5952220  49.8318488  57.3171627  51.3881668
  50.7861742  57.2855569  51.3211599  49.6331012  56.8562250  52.2031894
  50.4217870  55.8872743  53.9552466  51.2410759  56.3816821  53.9787303
  50.6954678  54.9704711  53.9270033  48.1868717  62.8591246  48.4051866
  48.0523185  62.0991647  47.8389864  47.7700779  63.5832146  47.9380655
  59.3227680  58.0428170  37.4128441  60.0263530  58.2478172  38.0286097
  58.5990329  58.6104932  37.6777525  51.3437843  63.7560563  48.6170308
  51.2270227  64.7005996  48.5148999  50.5230289  63.4534125  49.0056108
  61.2314377  58.4810699  39.4626901  62.0659981  58.0491897  39.2804376
  61.0698720  58.3092713  40.3903796  45.6752784  50.2210877  54.6544663
  46.3211648  49.7109831  55.1431888  45.4669935  50.9579558  55.2288088
  54.1956395  44.4850921  40.4068559  54.1835065  45.4292761  40.5636830
  55.0879817  44.3021067  40.1128020  52.3692357  64.4088825  51.8326237
  53.2719603  64.4412435  52.1492732  52.1429727  63.4789276  51.8472573
  54.1245959  63.1619812  48.4936315  53.1741590  63.1621673  48.3800688
  54.4278445  62.4152546  47.9772350  58.0108514  41.0793698  44.6614496
  57.2440910  40.5252185  44.8071178  58.4219219  41.1515567  45.5228647
  50.0150275  47.3678494  58.7519677  50.8781737  47.0115299  58.9623001
  49.4415686  47.0292389  59.4395081  62.0330360  71.5603359  41.1942093
  62.8061236  71.0132347  41.0554969  62.3855759  72.4247609  41.4056554
  64.3696638  67.7196026  38.8260543  64.6222159  67.1977547  38.0644006
  63.4321197  67.5562171  38.9287226  64.0892927  69.6224131  41.0284918
  63.9729185  68.9469035  41.6966002  64.1995187  69.1356505  40.2117071
  66.0729955  64.1124178  39.7292955  66.2404357  64.9804415  40.0963426
  65.8827124  64.2751460  38.8054245  63.8126068  79.3385478  44.3629753
  63.7350097  80.2893303  44.4418234  63.2087711  78.9931350  45.0204680
  56.8733709  66.3940731  50.7405312  57.1241747  67.2787741  51.0062888
  57.4093257  66.2145333  49.9680404  66.0864436  74.6967631  43.0835293
  65.9510111  75.5419166  43.5120141  66.6274249  74.8986908  42.3201227
  59.5393834  72.2143069  43.6563218  60.0518354  73.0086319  43.8068783
  60.1916547  71.5169359  43.5896820  57.5042751  70.5431723  44.4322789
  58.3417973  70.9528731  44.2156496  57.6821018  69.6031165  44.4022983
  62.6928233  64.9348246  39.9761854  61.8565545  65.2722933  40.2971128
  62.5533002  64.7997226  39.0388991  65.7792518  70.0604329  36.5994330
  64.8719580  69.8293583  36.7985479  66.2763550  69.2641948  36.7868311
  68.6860597  78.7701836  39.5191016  68.0122296  79.0733533  40.1275974
  69.0726419  79.5730917  39.1696473  59.9400697  63.9341285  45.3752716
  60.2007514  64.8486618  45.2661876  60.7617869  63.4665727  45.5249329
  66.8851812  78.9381509  41.7338095  67.0603568  78.4669552  42.5483718
  66.1984600  79.5647275  41.9619356  61.4512897  82.0870872  48.5077955
  61.6909496  82.7189396  49.1856974  60.6082094  81.7358912  48.7943315
  62.5666613  64.7795474  37.1759760  61.6896079  64.6584274  36.8122007
  63.0424366  63.9881552  36.9238649  54.0868753  69.5672633  47.2701268
  54.7739793  69.2534363  46.6822283  53.9316882  70.4713998  46.9968519
  65.9640759  77.8949994  50.9119459  65.8910931  78.7004965  51.4238764
  65.5218152  78.0941960  50.0867481  65.7530539  77.1321764  44.4222281
  64.9698061  77.6743444  44.5160505  66.4523284  77.6495744  44.8216522
  68.2359816  78.1335572  45.8163910  68.4182211  77.3157228  46.2791662
  69.0592802  78.3503264  45.3788800  68.5701982  77.0603757  43.0778958
  69.0989748  76.5496212  42.4649120  68.8330201  76.7446287  43.9424491
  61.9257730  78.1118874  45.8376734  61.2568105  78.5965002  45.3540774
  61.7870599  78.3588094  46.7520113  53.6636729  67.6473227  49.5418735
  53.7020829  67.1136817  50.3355853  53.1577022  67.1208432  48.9229712
  66.0662998  80.1462617  52.4359392  66.6181306  80.3094239  53.2008478
  66.4069192  80.7367055  51.7639417  57.2945307  66.3737329  42.6172666
  57.5898748  65.4648007  42.5639720  56.3933342  66.3525068  42.2953668
  69.2031385  78.0944593  49.4223075  69.0782525  77.2934333  48.9134020
  69.8610476  78.5890786  48.9337044  59.0233148  64.0551427  42.7411991
  58.6945854  63.1748805  42.5587097  59.3772519  63.9999095  43.6288381
  64.1243118  62.8399018  41.3080762  64.8451481  63.2180271  40.8044479
  63.5008423  63.5587895  41.4115740  71.6642165  77.0320555  43.6933941
  71.8379043  76.4666978  42.9407793  72.1571056  77.8321450  43.5113431
  57.4819125  69.0435225  51.7597500  56.9372593  69.8195032  51.8917774
  58.3598475  69.3906029  51.6016621  66.2349421  79.8659009  46.6813423
  65.7954412  79.3735387  47.3746280  66.9857538  79.3231976  46.4405498
  63.2436801  73.9600941  42.2294185  63.3924921  74.6436405  41.5760858
  64.0503244  73.9406031  42.7443641  60.2685081  65.7194476  40.7341416
  59.5754326  65.7938831  40.0781452  60.0236833  64.9554820  41.2562933
  66.7432206  76.4549072  39.7005933  66.1706173  77.0739259  39.2476405
  67.3165000  77.0048433  40.2345855  69.9629466  76.7386222  40.8314515
  70.8960139  76.6731783  41.0347391  69.8752679  77.5742489  40.3729048
  72.5917483  76.0552092  37.7918463  72.5131114  75.7211956  38.6854221
  73.4127149  76.5473860  37.7909935  67.1279005  67.7909884  37.0421985
  68.0738109  67.6616092  37.1110403  66.7493249  67.0524546  37.5191414
  65.3121922  65.7159861  36.9776871  64.4053377  65.4192973  37.0539584
  65.5897903  65.4189679  36.1111157  56.2299862  67.0366224  47.4275917
  55.9102646  66.1831532  47.1350291  55.6833290  67.2514802  48.1833884
  68.8574536  59.3374797  44.7545409  69.4105574  59.7570251  45.4135432
  69.0944622  58.4110545  44.7968365  64.0820706  62.5746796  37.1188850
  64.9439870  62.9001694  37.3784667  64.2671050  61.7878292  36.6061916
  56.0988122  70.6569136  49.3969039  55.4051594  70.2423088  48.8838993
  56.8461113  70.6989672  48.8002457  58.0124865  70.5887389  47.2735053
  57.9895553  70.6875077  46.3216937  58.3225501  71.4352540  47.5952220
  59.0262471  78.1883164  48.4051866  58.8916939  77.4283565  47.8389864
  58.6094534  78.9124064  47.9380655  70.1621434  73.3720087  37.4128441
  70.8657284  73.5770090  38.0286097  69.4384083  73.9396849  37.6777525
  62.1831597  79.0852481  48.6170308  62.0663981  80.0297913  48.5148999
  61.3624043  78.7826042  49.0056108  56.5146539  65.5502794  54.6544663
  57.1605402  65.0401748  55.1431888  56.3063690  66.2871476  55.2288088
  65.0350149  59.8142839  40.4068559  65.0228819  60.7584679  40.5636830
  65.9273571  59.6312984  40.1128020  63.2086111  79.7380743  51.8326237
  64.1113358  79.7704353  52.1492732  62.9823481  78.8081194  51.8472573
  64.9639713  78.4911729  48.4936315  64.0135344  78.4913591  48.3800688
  65.2672199  77.7444464  47.9772350  80.6992407  84.3272268  49.5582078
  81.3370817  84.2079015  48.8545418  80.5813250  85.2753112  49.6170030
  77.5082113  84.2799696  49.4943603  77.1700625  84.1640761  48.6064137
  78.3771881  83.8790861  49.4744609  73.3668929  86.1335172  45.4840493
  72.8033794  86.0425109  44.7156781  73.2521324  85.3135077  45.9642986
  77.9901896  85.4334548  55.4529808  77.9790537  85.0387346  54.5810312
  78.1522536  84.7000620  56.0463580  70.9133361  87.6286364  48.3224714
  71.7054653  87.2877188  47.9071013  71.1530011  87.7381339  49.2426867
  78.9468487  89.8006140  40.7954958  78.2956467  90.3860220  40.4088972
  79.7412850  90.3312335  40.8549996  72.8724115  86.8895277  41.1942093
  73.6454991  86.3424264  41.0554969  73.2249514  87.7539526  41.4056554
  74.7109157  88.2171659  54.4008992  74.4199023  89.1217290  54.2855658
  75.3466142  88.2588187  55.1153062  75.6365364  85.5948508  50.9910352
  76.2328936  85.3704530  50.2767315  75.6940336  84.8533253  51.5935800
  75.2090392  83.0487943  38.8260543  75.4615913  82.5269464  38.0644006
  74.2714952  82.8854089  38.9287226  80.2533675  82.0523722  46.6335286
  81.0396765  81.6343145  46.2825703  80.5172380  82.9569814  46.8016934
  80.4243753  87.4896572  41.3323943  79.7889586  87.5631198  42.0444847
  80.0941159  88.0790171  40.6543022  85.6542102  81.9898955  47.5368264
  86.3867274  81.4198172  47.7706094  84.8981458  81.6020555  47.9774770
  74.9286681  84.9516049  41.0284918  74.8122939  84.2760953  41.6966002
  75.0388941  84.4648423  40.2117071  77.2718222  84.4126196  44.7331607
  76.9076429  83.8856817  45.4444528  78.1285338  84.0224665  44.5598092
  76.9123709  79.4416096  39.7292955  77.0798111  80.3096332  40.0963426
  76.7220878  79.6043378  38.8054245  79.6699042  87.9033075  51.3958786
  79.3699765  88.8058114  51.2874593  79.3250102  87.6365258  52.2479939
  73.1211524  84.3546872  47.4295490  72.1962020  84.2223086  47.6373182
  73.3695937  85.1341091  47.9265433  83.0696186  80.4215615  49.0756223
  82.1613063  80.3531023  48.7814984  83.0183782  80.8987560  49.9038049
  76.8912930  81.8973753  40.7139622  76.7712555  82.3430804  41.5525102
  76.1965518  82.2459071  40.1553160  70.4820335  83.9980145  48.2639279
  70.6112716  84.2514624  49.1778691  69.8017786  84.5907853  47.9443934
  74.6519822  94.6677395  44.3629753  74.5743852  95.6185220  44.4418234
  74.0481466  94.3223268  45.0204680  77.1437052  81.8405261  57.0191120
  76.3670386  82.3999181  57.0093985  77.7827615  82.3262044  57.5405990
  84.9357832  78.6232053  50.8534097  84.2932213  78.9164587  50.2073892
  84.4312761  78.5084974  51.6587294  82.5897996  82.3695227  41.5419956
  83.5015852  82.6022613  41.3667654  82.0807643  82.9532271  40.9795035
  75.3983424  84.6490714  56.5809087  76.1398109  85.1875758  56.3043911
  74.6920410  85.2757003  56.7380639  80.8738764  86.7919854  55.1781249
  81.2822120  86.3502265  54.4335881  80.1516025  86.2172482  55.4315442
  77.2269834  81.7292461  52.5514806  78.0731029  82.1531875  52.6949455
  77.1668472  81.0726086  53.2453369  81.1967578  87.3521045  48.9333538
  80.5676441  87.5166759  48.2309606  80.8093241  87.7662655  49.7044502
  85.0756810  88.2875483  46.2877901  84.3907848  88.6674384  45.7374935
  85.1600660  88.8970810  47.0209849  80.3769279  79.3896830  54.2095979
  80.1330211  80.1438890  53.6730255  80.6529210  79.7682177  55.0443226
  82.3307742  85.9335442  52.8873245  82.5424637  86.5767202  52.2107626
  82.2837490  85.0997759  52.4195175  79.9333971  78.5453263  49.7909817
  79.0718450  78.8434516  50.0826555  79.9596406  78.7623662  48.8590850
  76.7495540  87.0895453  46.1983623  77.2133886  87.3683156  45.4088245
  76.4852338  86.1878898  46.0156713  73.6419621  86.6366935  49.1363386
  74.2120978  87.0654203  48.4980871  74.2327733  86.3549519  49.8347572
  75.6864426  83.2118606  43.0073188  76.3888470  83.6639649  43.4747114
  75.3545055  82.5702424  43.6353081  74.1344788  81.8030362  57.3824397
  73.5043448  82.4846643  57.6159794  74.0280876  81.6913444  56.4377536
  69.4289760  81.4702158  48.3090322  68.6388814  81.7259687  47.8330432
  69.9201008  82.2850496  48.4142362  83.4453570  88.8107397  51.0595602
  84.2671014  88.4087585  50.7778284  83.4415973  88.7075632  52.0111718
  71.3804506  81.8346737  45.2673798  70.5835669  81.9465432  45.7857294
  71.1530098  82.1733390  44.4014689  77.2110173  88.3591441  53.2156313
  77.2754606  88.8211848  54.0514485  76.5021097  87.7288806  53.3438623
  67.7127463  81.7232649  50.7405312  67.9635502  82.6079659  51.0062888
  68.2487012  81.5437250  49.9680404  91.5359563  85.1546146  47.4080574
  90.7823271  84.5853544  47.2524578  91.6707104  85.1208810  48.3551208
  76.9258191  90.0259548  43.0835293  76.7903866  90.8711084  43.5120141
  77.4668003  90.2278826  42.3201227  70.3787588  87.5434986  43.6563218
  70.8912109  88.3378236  43.8068783  71.0310301  86.8461277  43.5896820
  72.1882473  90.6600742  45.7385971  72.3649101  91.5818707  45.5506955
  72.9839307  90.3459162  46.1680351  71.4734830  82.7065374  55.6148135
  71.3588345  81.8050632  55.9155234  70.6179347  82.9529071  55.2632951
  78.5526667  90.6483115  57.2135635  78.1090522  89.8619493  56.8956540
  79.2143881  90.8362265  56.5479526  73.3113789  92.1778916  51.7396314
  73.8621214  92.0495980  50.9673308  72.4725264  92.4773805  51.3891207
  80.6507905  90.9285915  55.2417037  80.6326381  91.7494796  54.7497306
  81.5727825  90.8039990  55.4667178  77.1080960  88.4430044  56.0840545
  77.6409296  87.6818332  55.8539853  76.5795041  88.1503696  56.8264699
  68.3436505  85.8723641  44.4322789  69.1811727  86.2820649  44.2156496
  68.5214773  84.9323083  44.4022983  80.2400937  83.5398721  40.1206622
  79.7247561  84.3103326  40.3595009  79.9678246  82.8663857  40.7439683
  77.8248048  78.3848422  45.1791860  76.9689645  77.9955272  44.9997499
  78.2375000  78.4640383  44.3191646  85.2135211  86.2931076  42.0559795
  84.4364654  85.9542235  41.6114957  85.8926692  86.2983699  41.3814760
  80.0287240  81.4125813  41.9466403  79.7237376  81.7271962  42.7976546
  80.9817683  81.4907233  41.9893736  78.4733672  87.5716037  43.5959357
  77.9455034  86.8368796  43.2832594  77.9721175  88.3490713  43.3499325
  83.4526518  85.7665057  48.7126403  82.7950193  86.4564318  48.8006532
  84.2566918  86.1561489  49.0560390  82.2631977  84.1209430  46.7630345
  82.7763859  84.7539422  47.2652055  82.9133201  83.5210625  46.3973705
  73.5321987  80.2640164  39.9761854  72.6959299  80.6014850  40.2971128
  73.3926757  80.1289144  39.0388991  76.6186272  85.3896247  36.5994330
  75.7113334  85.1585500  36.7985479  77.1157304  84.5933866  36.7868311
  79.5254351  94.0993754  39.5191016  78.8516050  94.4025451  40.1275974
  79.9120173  94.9022834  39.1696473  78.7412808  81.5958885  49.0088685
  77.8235369  81.8173832  48.8510374  79.1572952  81.6705196  48.1500393
  79.5247856  82.9950301  44.1391366  80.2719675  83.5071698  43.8298488
  79.7939445  82.6734354  44.9995759  77.7974506  85.4908842  41.1218320
  76.8885725  85.2067875  41.2190790  77.8269590  85.9107920  40.2621627
  83.0293773  89.1015431  44.8909488  82.5756100  88.2606341  44.9474678
  82.3987740  89.7376830  45.2284268  81.9726693  80.0307417  46.1210155
  81.2349450  79.5184803  46.4520398  82.2253466  79.5907799  45.3093432
  81.4726713  90.9391928  45.8259306  81.7649687  91.4996985  45.1071671
  81.9825333  91.2320489  46.5812465  68.3662676  83.2114356  45.1033522
  68.1687076  82.6183717  44.3784589  67.8109340  82.9066566  45.8209461
  76.3459400  83.1037462  47.2228115  76.4008010  82.1511299  47.1470592
  75.5350602  83.2596901  47.7069414  77.4950594  87.0317585  38.4606399
  77.0570024  86.3153444  38.0012036  78.2361035  87.2593700  37.8991490
  74.2851760  81.7214522  44.9818494  73.4719625  82.0208693  45.3883686
  74.7810754  81.3270211  45.6992976  76.4360338  91.7172279  46.9152759
  76.3936517  91.9433125  45.9861291  77.3523037  91.4835654  47.0638560
  79.8825972  82.1856347  53.8133388  80.2375359  82.4127820  54.6727854
  80.5298103  82.5174723  53.1910643  85.6123709  85.3074782  44.5182717
  85.4741607  85.4976378  43.5903906  85.2559927  86.0694165  44.9750768
  85.6393088  87.3751309  49.5293989  86.0729595  87.2826599  50.3777043
  86.3524669  87.3508810  48.8914005  74.5526139  88.5935308  46.7114722
  75.3466737  88.0985628  46.5097297  73.8417831  88.0653171  46.3482427
  79.3720983  90.9753404  51.0627089  79.4258005  91.5444340  51.8304805
  78.5035764  91.1455289  50.6981126  70.8608902  82.7378390  42.7874474
  69.9306490  82.6762845  43.0044436  70.9566374  82.2154342  41.9911116
  70.7794451  79.2633203  45.3752716  71.0401268  80.1778536  45.2661876
  71.6011623  78.7957645  45.5249329  72.2519376  80.6770960  52.5451541
  72.9242430  80.4688322  51.8964189  71.4249163  80.4793046  52.1056773
  86.5008638  87.4175010  52.0626874  86.6944528  88.3220821  52.3086149
  86.4009256  86.9582429  52.8965459  81.5623746  87.5681753  57.6367755
  81.4109253  87.3392305  56.7197838  81.5528426  88.5252354  57.6499100
  78.3309083  85.1413666  52.6214021  79.2601143  85.2924825  52.4482988
  77.9100113  85.2297686  51.7662668  77.1297415  89.1664330  50.3912559
  76.9908500  88.7983114  51.2638497  76.3412011  89.6811969  50.2196517
  77.7245567  94.2673426  41.7338095  77.8997322  93.7961470  42.5483718
  77.0378355  94.8939193  41.9619356  78.6802630  88.5445933  47.7801397
  78.3452462  88.5046703  48.6759046  78.1806575  87.8790649  47.3071807
  72.6546874  83.9513563  53.3053978  72.5166672  83.2193802  53.9065517
  73.5651797  83.8622463  53.0238165  81.6161821  85.8901967  38.0538456
  80.9990992  85.1648795  37.9571509  81.1478310  86.6511327  37.7105530
  75.2829174  83.6633522  52.7937657  75.9928793  83.0226714  52.7524276
  75.2398482  83.9146417  53.7163838  83.2715953  90.6000875  55.7144237
  83.2128499  89.9160096  55.0474820  83.6735471  91.3419865  55.2624863
  73.9958108  80.6498740  54.6133297  73.4595465  80.1989478  55.2654893
  73.4074817  80.7844649  53.8703761  72.2906652  97.4162789  48.5077955
  72.5303250  98.0481313  49.1856974  71.4475848  97.0650829  48.7943315
  73.4060367  80.1087391  37.1759760  72.5289834  79.9876192  36.8122007
  73.8818120  79.3173470  36.9238649  83.2733360  88.5640459  53.9458216
  82.3860139  88.2266381  54.0684615  83.8431911  87.8323491  54.1826982
  64.9262507  84.8964551  47.2701268  65.6133547  84.5826281  46.6822283
  64.7710636  85.8005916  46.9968519  69.7297230  79.7854748  51.6986291
  69.6455418  79.1780417  50.9636701  68.9079936  80.2763766  51.6995788
  76.8034514  93.2241912  50.9119459  76.7304685  94.0296883  51.4238764
  76.3611907  93.4233877  50.0867481  76.5924293  92.4613682  44.4222281
  75.8091815  93.0035362  44.5160505  77.2917038  92.9787661  44.8216522
  79.9020943  78.2708311  47.0656486  80.3989643  77.5178273  46.7457557
  79.1307925  78.3072628  46.4999696  87.7550701  83.9748677  48.7074778
  87.7440577  84.8573392  48.3368711  86.8868080  83.6220228  48.5129315
  79.2633197  93.1228746  53.0677618  79.9761169  93.7576211  52.9953520
  78.7723226  93.2192612  52.2517620  80.9850724  87.0279998  44.6394910
  80.0507003  87.1481461  44.4699614  81.1627393  86.1252465  44.3754920
  76.4855912  80.4125694  46.7928171  76.1153700  79.8596735  47.4809077
  76.9815005  79.8083828  46.2403171  84.3723275  82.8697318  45.1744944
  84.8383728  83.7025309  45.1005247  84.8230776  82.4042299  45.8790202
  74.3145111  90.8723189  53.8883189  75.0154570  91.5059672  54.0412583
  73.8440226  91.2137921  53.1278828  82.4399507  89.2141139  42.1731096
  82.7159350  89.0997734  43.0824970  81.5704005  88.8158624  42.1343269
  82.1146397  83.4267797  51.7135739  81.4617847  83.6743704  51.0588192
  82.4926777  82.6131935  51.3798217  79.0753571  93.4627490  45.8163910
  79.2575965  92.6449146  46.2791662  79.8986557  93.6795182  45.3788800
  79.4095736  92.3895675  43.0778958  79.9383502  91.8788130  42.4649120
  79.6723956  92.0738205  43.9424491  78.1633970  84.1687608  58.2001776
  77.4874607  84.0681737  58.8704152  78.9861604  84.0126821  58.6637774
  69.9112829  90.4059544  50.8214292  70.4966266  89.6603232  50.9542196
  69.7137667  90.7163501  51.7050955  72.7651484  93.4410792  45.8376734
  72.0961859  93.9256919  45.3540774  72.6264354  93.6880012  46.7520113
  64.5030484  82.9765144  49.5418735  64.5414583  82.4428735  50.3355853
  63.9970776  82.4500350  48.9229712  76.9056753  95.4754535  52.4359392
  77.4575061  95.6386157  53.2008478  77.2462946  96.0658973  51.7639417
  71.3573518  79.8952817  56.6854311  71.9845557  79.5129895  57.2991836
  70.5001437  79.6767019  57.0510004  81.7567627  90.3015793  58.2908047
  82.3007531  90.9145751  57.7963002  81.1754472  90.8595371  58.8075060
  68.1339061  81.7029247  42.6172666  68.4292502  80.7939925  42.5639720
  67.2327097  81.6816986  42.2953668  80.0425140  93.4236511  49.4223075
  79.9176279  92.6226250  48.9134020  80.7004231  93.9182704  48.9337044
  71.6633308  79.7785243  48.6000215  70.9419894  80.3921211  48.4607688
  72.4526564  80.3143008  48.5216861  82.1060048  91.2245531  51.0502625
  81.1590384  91.1050882  50.9780951  82.4542821  90.3368029  51.1328886
  69.8626903  79.3843344  42.7411991  69.5339609  78.5040723  42.5587097
  70.2166273  79.3291013  43.6288381  79.1106482  91.0198247  47.2506977
  78.9631444  90.0914954  47.4314547  79.9359975  91.0418338  46.7664052
  72.9768726  79.6716314  43.1087469  73.3164798  80.2002235  42.3866077
  73.4240846  80.0096720  43.8846035  82.7140603  91.8426806  48.3371850
  83.6387151  91.6369667  48.1996301  82.5455907  91.5943207  49.2461191
  74.9636873  78.1690936  41.3080762  75.6845235  78.5472188  40.8044479
  74.3402177  78.8879812  41.4115740  79.1067996  78.8736085  42.2439094
  79.3231610  79.7560722  41.9427922  78.6262063  78.4822298  41.5144736
  73.8467217  81.8321798  48.8209839  73.7011798  82.1462101  49.7134120
  73.3692421  82.4506698  48.2680737  77.5589731  79.2561686  50.9143856
  77.3007509  80.1778757  50.9128186  77.0274771  78.8592121  51.6044320
  82.5035920  92.3612473  43.6933941  82.6772797  91.7958896  42.9407793
  82.9964811  93.1613368  43.5113431  68.3212879  84.3727142  51.7597500
  67.7766347  85.1486950  51.8917774  69.1992229  84.7197947  51.6016621
  75.1100496  77.7038726  44.1378298  75.2316407  76.7755372  44.3369186
  74.8202538  77.7177412  43.2256614  88.3575311  85.1248896  45.3124241
  88.8006457  84.3756221  44.9143364  87.4801821  85.1159032  44.9297973
  83.4911092  91.6779238  40.7930839  84.1861997  92.2985930  41.0118154
  83.8334242  90.8274589  41.0683217  69.1078901  83.4997038  54.6527657
  68.3660637  83.6479674  55.2392287  68.7871646  83.7605304  53.7894406
  85.3902515  89.1278943  42.3218170  85.9153839  89.4666216  41.5967490
  85.3024868  88.1925958  42.1381305  77.0522564  93.0413017  54.4508047
  77.3609690  92.7962163  55.3230746  77.8498046  93.2459655  53.9626917
  77.0743176  95.1950926  46.6813423  76.6348166  94.7027305  47.3746280
  77.8251293  94.6523894  46.4405498  69.5535515  91.3862467  46.6838051
  70.3793535  91.0866239  46.3036695  69.2029567  90.6170090  47.1327840
  74.5217048  90.7388935  48.7535725  73.8997057  90.0759640  48.4537953
  75.1921915  90.7650067  48.0709373  67.7544120  89.3048794  47.6426985
  66.9176028  88.8770968  47.4610986  67.7267765  89.4981237  48.5797776
  74.5941576  79.2170723  58.3468231  74.6429731  80.0932846  57.9646001
  75.1364090  78.6748116  57.7739874  85.0796421  89.7611847  57.6269368
  84.2891965  89.7435986  57.0873867  84.8429776  90.3000140  58.3818405
  85.1994296  86.6104313  54.9402097  85.2492301  86.4454321  55.8817619
  85.0908220  85.7431572  54.5499977  74.0830555  89.2892859  42.2294185
  74.2318675  89.9728323  41.5760858  74.8896998  89.2697949  42.7443641
  82.4898059  82.5935241  56.2561403  83.3907921  82.4541706  55.9645401
  82.5646033  82.7589696  57.1959581  76.8240864  79.9702096  55.1014590
  75.9544173  80.2635662  54.8297178  77.0600344  80.5542541  55.8221853
  86.7012493  89.0301255  55.1844118  86.4097301  89.3931235  56.0207579
  86.0884624  88.3168263  55.0057450  87.9008175  86.5954134  47.7046688
  88.7355067  87.0343938  47.8684249  88.0367304  86.1192788  46.8854934
  84.9499681  84.1533869  53.6524176  85.4253803  84.3461516  52.8443027
  84.0265247  84.2093055  53.4067560  71.8383188  85.3158036  43.2355254
  71.5929230  84.4120366  43.4335465  72.0079103  85.3175187  42.2934732
  79.5279898  76.1881713  52.6180010  80.0461842  76.9242740  52.2926499
  79.1735031  76.4945706  53.4526769  71.1078836  81.0486394  40.7341416
  70.4148080  81.1230749  40.0781452  70.8630587  80.2846738  41.2562933
  77.5825961  91.7840989  39.7005933  77.0099928  92.4031176  39.2476405
  78.1558754  92.3340351  40.2345855  83.6501350  81.0299629  51.8852482
  84.6018773  81.1297727  51.9064706  83.4804801  80.2377898  52.3950566
  81.6715730  78.1155213  52.0711883  81.0765662  78.3960225  51.3758371
  81.3865427  78.6049113  52.8428624  80.8023220  92.0678139  40.8314515
  81.7353893  92.0023701  41.0347391  80.7146433  92.9034406  40.3729048
  83.4311237  91.3844010  37.7918463  83.3524869  91.0503873  38.6854221
  84.2520904  91.8765778  37.7909935  86.1289428  84.2505749  50.9994781
  86.0965748  83.3121750  51.1854465  86.7390052  84.3289786  50.2660606
  77.9672759  83.1201802  37.0421985  78.9131864  82.9908010  37.1110403
  77.5887004  82.3816464  37.5191414  86.2783917  81.0416792  51.0453065
  85.7622965  80.2575249  50.8582993  87.1623865  80.7135509  51.2099584
  91.9465978  85.3121756  50.1400818  92.6769367  85.0507044  50.7008521
  91.3372924  84.5750478  50.1802886  90.0281275  83.4529618  50.7375269
  89.3014439  83.3185583  50.1291761  89.6128562  83.7606447  51.5431987
  77.8511452  87.1719548  58.5022642  78.7714461  87.3498147  58.6962689
  77.8161035  86.2275593  58.3502342  76.1515676  81.0451778  36.9776871
  75.2447132  80.7484891  37.0539584  76.4291657  80.7481596  36.1111157
  67.0693617  82.3658142  47.4275917  66.7496401  81.5123450  47.1350291
  66.5227045  82.5806720  48.1833884  70.8473524  85.0820583  51.1445424
  71.0659534  86.0137691  51.1633457  71.2599298  84.7228557  51.9300227
  75.7201389  80.6553789  60.5348172  75.6198116  81.6048145  60.4660264
  75.5022931  80.3272027  59.6624243  74.9214461  77.9038714  37.1188850
  75.7833625  78.2293612  37.3784667  75.1064805  77.1170209  36.6061916
  66.9381877  85.9861053  49.3969039  66.2445348  85.5715006  48.8838993
  67.6854868  86.0281590  48.8002457  75.5832659  84.0850927  59.3513234
  75.0999741  84.8851287  59.5577123  75.6693599  84.0958872  58.3980678
  68.8518619  85.9179307  47.2735053  68.8289307  86.0166994  46.3216937
  69.1619256  86.7644458  47.5952220  71.5105997  87.9755462  51.3881668
  72.4649251  87.9439404  51.3211599  71.3118521  87.5146086  52.2031894
  72.1005379  86.5456578  53.9552466  72.9198268  87.0400657  53.9787303
  72.3742187  85.6288546  53.9270033  81.8571975  78.9367330  43.3180421
  80.9697830  79.2216981  43.1000616  82.2725964  78.7761094  42.4707698
  85.2086511  78.9613851  47.0334760  85.9846902  79.4510304  47.3059377
  84.4834646  79.3871906  47.4906630  87.6459070  79.6741471  48.0908701
  88.2403561  79.4337207  47.3802009  87.7185654  78.9548601  48.7182237
  69.8656226  93.5175082  48.4051866  69.7310694  92.7575482  47.8389864
  69.4488288  94.2415981  47.9380655  81.0015189  88.7012005  37.4128441
  81.7051039  88.9062008  38.0286097  80.2777838  89.2688767  37.6777525
  81.8312999  84.4521866  43.5330711  81.7748200  84.9090418  42.6938344
  82.3841342  83.6912551  43.3553554  85.6417805  80.2411598  44.3580831
  85.3854739  79.8408234  45.1889038  85.0170673  80.9555392  44.2330970
  89.9530143  82.9807671  46.8652122  89.3929701  83.0500861  47.6383684
  89.3473646  82.8048656  46.1451618  73.0225352  94.4144399  48.6170308
  72.9057736  95.3589831  48.5148999  72.2017798  94.1117960  49.0056108
  82.9101886  89.1394534  39.4626901  83.7447490  88.7075733  39.2804376
  82.7486229  88.9676548  40.3903796  82.5647778  85.6426648  40.8283240
  82.5096582  85.4770919  39.8871685  81.9393834  86.3502681  40.9845430
  67.3540293  80.8794712  54.6544663  67.9999157  80.3693666  55.1431888
  67.1457444  81.6163394  55.2288088  79.8793686  87.9475559  60.1536803
  80.7484845  88.1216212  59.7923438  79.4000437  88.7669976  60.0312533
  74.0479866  95.0672660  51.8326237  74.9507112  95.0996271  52.1492732
  73.8217236  94.1373111  51.8472573  75.8033468  93.8203647  48.4936315
  74.8529099  93.8205509  48.3800688  76.1065954  93.0736382  47.9772350
  71.6937784  78.0262329  58.7519677  72.5569246  77.6699134  58.9623001
  71.1203195  77.6876224  59.4395081  91.5386161  99.6564185  49.5582078
  92.1764571  99.5370933  48.8545418  91.4207004 100.6045029  49.6170030
  88.3475868  99.6091614  49.4943603  88.0094379  99.4932678  48.6064137
  89.2165636  99.2082779  49.4744609  84.2062683 101.4627090  45.4840493
  83.6427548 101.3717027  44.7156781  84.0915078 100.6426994  45.9642986
  88.8295651 100.7626465  55.4529808  88.8184291 100.3679264  54.5810312
  88.9916290 100.0292538  56.0463580  81.7527115 102.9578282  48.3224714
  82.5448407 102.6169106  47.9071013  81.9923765 103.0673257  49.2426867
  89.7862242 105.1298058  40.7954958  89.1350222 105.7152138  40.4088972
  90.5806605 105.6604253  40.8549996  83.7117869 102.2187195  41.1942093
  84.4848745 101.6716182  41.0554969  84.0643268 103.0831444  41.4056554
  85.5502912 103.5463577  54.4008992  85.2592778 104.4509208  54.2855658
  86.1859896 103.5880105  55.1153062  86.4759119 100.9240426  50.9910352
  87.0722691 100.6996448  50.2767315  86.5334090 100.1825171  51.5935800
  86.0484147  98.3779861  38.8260543  86.3009668  97.8561382  38.0644006
  85.1108706  98.2146006  38.9287226  91.0927430  97.3815639  46.6335286
  91.8790519  96.9635062  46.2825703  91.3566134  98.2861731  46.8016934
  91.2637507 102.8188490  41.3323943  90.6283340 102.8923116  42.0444847
  90.9334914 103.4082088  40.6543022  96.4935857  97.3190872  47.5368264
  97.2261029  96.7490089  47.7706094  95.7375213  96.9312473  47.9774770
  85.7680436 100.2807967  41.0284918  85.6516694  99.6052870  41.6966002
  85.8782696  99.7940341  40.2117071  88.1111977  99.7418114  44.7331607
  87.7470184  99.2148735  45.4444528  88.9679093  99.3516583  44.5598092
  94.0161277  91.0312447  51.9962873  93.6844602  91.9007858  51.7724088
  93.4206891  90.7148731  52.6756903  87.7517464  94.7708014  39.7292955
  87.9191866  95.6388250  40.0963426  87.5614633  94.9335295  38.8054245
  90.5092797 103.2324993  51.3958786  90.2093520 104.1350031  51.2874593
  90.1643856 102.9657176  52.2479939  83.9605278  99.6838789  47.4295490
  83.0355775  99.5515003  47.6373182  84.2089691 100.4633009  47.9265433
  93.9089941  95.7507533  49.0756223  93.0006818  95.6822941  48.7814984
  93.8577536  96.2279478  49.9038049  87.7306684  97.2265671  40.7139622
  87.6106310  97.6722722  41.5525102  87.0359273  97.5750989  40.1553160
  81.3214089  99.3272063  48.2639279  81.4506470  99.5806542  49.1778691
  80.6411541  99.9199771  47.9443934  85.4913577 109.9969313  44.3629753
  85.4137606 110.9477138  44.4418234  84.8875220 109.6515185  45.0204680
  87.9830806  97.1697178  57.0191120  87.2064140  97.7291098  57.0093985
  88.6221369  97.6553961  57.5405990  95.7751587  93.9523971  50.8534097
  95.1325967  94.2456504  50.2073892  95.2706515  93.8376891  51.6587294
  93.4291751  97.6987144  41.5419956  94.3409607  97.9314531  41.3667654
  92.9201398  98.2824189  40.9795035  86.2377179  99.9782632  56.5809087
  86.9791863 100.5167676  56.3043911  85.5314164 100.6048920  56.7380639
  91.7132518 102.1211772  55.1781249  92.1215874 101.6794183  54.4335881
  90.9909780 101.5464400  55.4315442  88.0663588  97.0584379  52.5514806
  88.9124784  97.4823792  52.6949455  88.0062226  96.4018003  53.2453369
  92.0361333 102.6812963  48.9333538  91.4070195 102.8458677  48.2309606
  91.6486995 103.0954572  49.7044502  95.9150565 103.6167401  46.2877901
  95.2301603 103.9966302  45.7374935  95.9994414 104.2262727  47.0209849
  91.2163034  94.7188747  54.2095979  90.9723966  95.4730808  53.6730255
  91.4922964  95.0974095  55.0443226  93.1701496 101.2627360  52.8873245
  93.3818392 101.9059120  52.2107626  93.1231245 100.4289676  52.4195175
  90.7727725  93.8745180  49.7909817  89.9112204  94.1726434  50.0826555
  90.7990160  94.0915579  48.8590850  87.5889295 102.4187371  46.1983623
  88.0527640 102.6975074  45.4088245  87.3246093 101.5170815  46.0156713
  84.4813376 101.9658852  49.1363386  85.0514733 102.3946121  48.4980871
  85.0721488 101.6841437  49.8347572  86.5258181  98.5410523  43.0073188
  87.2282224  98.9931567  43.4747114  86.1938809  97.8994342  43.6353081
  84.9738542  97.1322280  57.3824397  84.3437203  97.8138561  57.6159794
  84.8674630  97.0205361  56.4377536  80.2683515  96.7994076  48.3090322
  79.4782569  97.0551604  47.8330432  80.7594762  97.6142414  48.4142362
  94.2847324 104.1399315  51.0595602  95.1064768 103.7379502  50.7778284
  94.2809727 104.0367549  52.0111718  82.2198260  97.1638655  45.2673798
  81.4229423  97.2757349  45.7857294  81.9923852  97.5025307  44.4014689
  88.0503928 103.6883358  53.2156313  88.1148360 104.1503766  54.0514485
  87.3414852 103.0580723  53.3438623  78.5521218  97.0524566  50.7405312
  78.8029256  97.9371576  51.0062888  79.0880766  96.8729168  49.9680404
 102.3753317 100.4838064  47.4080574 101.6217026  99.9145462  47.2524578
 102.5100859 100.4500728  48.3551208  87.7651945 105.3551466  43.0835293
  87.6297620 106.2003002  43.5120141  88.3061758 105.5570743  42.3201227
  84.2519285  91.4343046  59.7449648  83.8586231  90.8809244  60.4197293
  85.0685425  91.7453624  60.1356166  81.2181343 102.8726904  43.6563218
  81.7305863 103.6670154  43.8068783  81.8704056 102.1753194  43.5896820
  83.0276228 105.9892660  45.7385971  83.2042856 106.9110625  45.5506955
  83.8233061 105.6751079  46.1680351  87.1687246  92.8500925  57.3369905
  87.9096959  93.4508078  57.2574367  87.4005169  92.1078563  56.7787948
  82.3128584  98.0357292  55.6148135  82.1982099  97.1342549  55.9155234
  81.4573102  98.2820989  55.2632951  89.3920422 105.9775032  57.2135635
  88.9484276 105.1911411  56.8956540  90.0537635 106.1654183  56.5479526
  84.1507543 107.5070834  51.7396314  84.7014968 107.3787897  50.9673308
  83.3119019 107.8065723  51.3891207  91.4901660 106.2577832  55.2417037
  91.4720135 107.0786713  54.7497306  92.4121580 106.1331908  55.4667178
  87.9474714 103.7721962  56.0840545  88.4803051 103.0110250  55.8539853
  87.4188795 103.4795614  56.8264699  91.1144409  88.8782028  51.6134187
  90.7708678  89.7683669  51.5373297  91.4823372  88.6883685  50.7503772
  79.1830260 101.2015558  44.4322789  80.0205482 101.6112567  44.2156496
  79.3608527 100.2615000  44.4022983  91.0794692  98.8690639  40.1206622
  90.5641315  99.6395243  40.3595009  90.8072000  98.1955775  40.7439683
  88.6641803  93.7140340  45.1791860  87.8083399  93.3247190  44.9997499
  89.0768755  93.7932300  44.3191646  90.1940949  91.2486683  49.5783420
  89.6905745  91.2116818  48.7651225  90.4871556  92.1579426  49.6380077
  86.4383835  91.3325413  48.5849602  87.3036832  91.1368221  48.2255491
  86.5061344  91.1035764  49.5118958  96.0528966 101.6222993  42.0559795
  95.2758409 101.2834153  41.6114957  96.7320447 101.6275617  41.3814760
  90.8680995  96.7417731  41.9466403  90.5631131  97.0563880  42.7976546
  91.8211437  96.8199151  41.9893736  89.3127427 102.9007954  43.5959357
  88.7848788 102.1660714  43.2832594  88.8114930 103.6782631  43.3499325
  94.2920273 101.0956975  48.7126403  93.6343947 101.7856236  48.8006532
  95.0960672 101.4853407  49.0560390  84.0446154  93.5627621  45.9565968
  84.6189906  93.3402802  45.2239161  84.6317137  93.6316315  46.7094570
  93.1025732  99.4501347  46.7630345  93.6157613 100.0831339  47.2652055
  93.7526955  98.8502543  46.3973705  84.3715742  95.5932082  39.9761854
  83.5353054  95.9306768  40.2971128  84.2320511  95.4581061  39.0388991
  86.3468822  90.4368869  44.6841038  85.6933234  90.1217887  44.0597653
  86.3049296  89.8144610  45.4100861  87.4580027 100.7188165  36.5994330
  86.5507089 100.4877418  36.7985479  87.9551059  99.9225784  36.7868311
  90.3648106 109.4285672  39.5191016  89.6909805 109.7317368  40.1275974
  90.7513928 110.2314752  39.1696473  89.5806562  96.9250803  49.0088685
  88.6629124  97.1465750  48.8510374  89.9966706  96.9997113  48.1500393
  90.3641610  98.3242219  44.1391366  91.1113429  98.8363616  43.8298488
  90.6333200  98.0026271  44.9995759  88.6368260 100.8200759  41.1218320
  87.7279480 100.5359792  41.2190790  88.6663344 101.2399838  40.2621627
  93.8687528 104.4307349  44.8909488  93.4149855 103.5898259  44.9474678
  93.2381495 105.0668747  45.2284268  92.8120447  95.3599335  46.1210155
  92.0743204  94.8476721  46.4520398  93.0647221  94.9199717  45.3093432
  92.3120467 106.2683846  45.8259306  92.6043441 106.8288903  45.1071671
  92.8219088 106.5612407  46.5812465  92.9132075  88.1375587  46.7151924
  93.2190952  87.2772950  46.4277839  93.6384680  88.7293207  46.5150918
  79.2056431  98.5406274  45.1033522  79.0080831  97.9475634  44.3784589
  78.6503095  98.2358484  45.8209461  87.1853154  98.4329380  47.2228115
  87.2401764  97.4803216  47.1470592  86.3744356  98.5888819  47.7069414
  88.3344348 102.3609503  38.4606399  87.8963778 101.6445362  38.0012036
  89.0754789 102.5885618  37.8991490  85.1245514  97.0506440  44.9818494
  84.3113380  97.3500610  45.3883686  85.6204509  96.6562129  45.6992976
  87.2754092 107.0464197  46.9152759  87.2330271 107.2725043  45.9861291
  88.1916791 106.8127571  47.0638560  90.7219726  97.5148264  53.8133388
  91.0769114  97.7419737  54.6727854  91.3691857  97.8466641  53.1910643
  96.4517463 100.6366700  44.5182717  96.3135362 100.8268296  43.5903906
  96.0953682 101.3986083  44.9750768  84.6159589  94.6224795  50.5979729
  85.2558968  94.4813554  49.9002693  83.7837120  94.3359309  50.2218331
  96.4786843 102.7043227  49.5293989  96.9123349 102.6118516  50.3777043
  97.1918423 102.6800728  48.8914005  85.3919893 103.9227226  46.7114722
  86.1860492 103.4277546  46.5097297  84.6811585 103.3945089  46.3482427
  90.2114738 106.3045321  51.0627089  90.2651760 106.8736258  51.8304805
  89.3429519 106.4747206  50.6981126  81.7002657  98.0670307  42.7874474
  80.7700245  98.0054763  43.0044436  81.7960128  97.5446260  41.9911116
  81.6188206  94.5925120  45.3752716  81.8795023  95.5070453  45.2661876
  82.4405378  94.1249563  45.5249329  83.0913131  96.0062877  52.5451541
  83.7636184  95.7980240  51.8964189  82.2642917  95.8084963  52.1056773
  97.3402392 102.7466928  52.0626874  97.5338282 103.6512738  52.3086149
  97.2403010 102.2874347  52.8965459  88.9938703  92.6324818  54.5617201
  88.3466618  93.3314768  54.4681678  89.7639718  93.0660962  54.9293450
  92.4017501 102.8973671  57.6367755  92.2503007 102.6684222  56.7197838
  92.3922180 103.8544272  57.6499100  89.1702837 100.4705583  52.6214021
  90.0994897 100.6216743  52.4482988  88.7493867 100.5589604  51.7662668
  87.9691169 104.4956248  50.3912559  87.8302255 104.1275032  51.2638497
  87.1805765 105.0103887  50.2196517  88.5639321 109.5965344  41.7338095
  88.7391077 109.1253387  42.5483718  87.8772109 110.2231110  41.9619356
  89.5196384 103.8737850  47.7801397  89.1846217 103.8338620  48.6759046
  89.0200330 103.2082566  47.3071807  83.4940628  99.2805480  53.3053978
  83.3560426  98.5485719  53.9065517  84.4045552  99.1914380  53.0238165
  92.4555576 101.2193885  38.0538456  91.8384746 100.4940713  37.9571509
  91.9872064 101.9803245  37.7105530  86.1222929  98.9925440  52.7937657
  86.8322547  98.3518632  52.7524276  86.0792237  99.2438335  53.7163838
  94.1109707 105.9292793  55.7144237  94.0522254 105.2452013  55.0474820
  94.5129226 106.6711783  55.2624863  84.8351863  95.9790658  54.6133297
  84.2989220  95.5281396  55.2654893  84.2468571  96.1136566  53.8703761
  83.1300406 112.7454707  48.5077955  83.3697005 113.3773231  49.1856974
  82.2869603 112.3942747  48.7943315  84.2454122  95.4379309  37.1759760
  83.3683588  95.3168110  36.8122007  84.7211875  94.6465387  36.9238649
  94.1127115 103.8932377  53.9458216  93.2253894 103.5558299  54.0684615
  94.6825666 103.1615408  54.1826982  75.7656262 100.2256469  47.2701268
  76.4527302  99.9118199  46.6822283  75.6104391 101.1297833  46.9968519
  80.5690984  95.1146665  51.6986291  80.4849173  94.5072335  50.9636701
  79.7473690  95.6055684  51.6995788  87.6428268 108.5533829  50.9119459
  87.5698440 109.3588801  51.4238764  87.2005661 108.7525795  50.0867481
  87.4318048 107.7905599  44.4222281  86.6485570 108.3327280  44.5160505
  88.1310793 108.3079579  44.8216522  90.7414698  93.6000229  47.0656486
  91.2383397  92.8470191  46.7457557  89.9701679  93.6364545  46.4999696
  98.5944455  99.3040594  48.7074778  98.5834332 100.1865310  48.3368711
  97.7261835  98.9512145  48.5129315  90.1026952 108.4520663  53.0677618
  90.8154924 109.0868128  52.9953520  89.6116980 108.5484529  52.2517620
  91.8244479 102.3571916  44.6394910  90.8900757 102.4773379  44.4699614
  92.0021147 101.4544383  44.3754920  87.3249667  95.7417612  46.7928171
  86.9547454  95.1888652  47.4809077  87.8208759  95.1375745  46.2403171
  95.2117030  98.1989235  45.1744944  95.6777482  99.0317227  45.1005247
  95.6624530  97.7334217  45.8790202  85.1538865 106.2015107  53.8883189
  85.8548325 106.8351590  54.0412583  84.6833980 106.5429838  53.1278828
  93.2793261 104.5433057  42.1731096  93.5553105 104.4289651  43.0824970
  92.4097760 104.1450541  42.1343269  93.1833693  90.5669822  49.2135845
  92.2696772  90.7974049  49.3818052  93.6126794  90.6508266  50.0649878
  92.9540151  98.7559714  51.7135739  92.3011601  99.0035622  51.0588192
  93.3320531  97.9423852  51.3798217  89.9147325 108.7919407  45.8163910
  90.0969720 107.9741063  46.2791662  90.7380311 109.0087100  45.3788800
  90.2489491 107.7187593  43.0778958  90.7777257 107.2080047  42.4649120
  90.5117710 107.4030123  43.9424491  89.0027724  99.4979525  58.2001776
  88.3268361  99.3973655  58.8704152  89.8255358  99.3418739  58.6637774
  80.7506583 105.7351462  50.8214292  81.3360020 104.9895150  50.9542196
  80.5531422 106.0455419  51.7050955  83.6045238 108.7702709  45.8376734
  82.9355614 109.2548837  45.3540774  83.4658108 109.0171930  46.7520113
  75.3424238  98.3057062  49.5418735  75.3808338  97.7720653  50.3355853
  74.8364531  97.7792268  48.9229712  87.7450507 110.8046453  52.4359392
  88.2968815 110.9678074  53.2008478  88.0856701 111.3950891  51.7639417
  82.7215000  93.1521603  53.0381277  82.7856327  94.0136433  52.6258675
  82.6582121  92.5395604  52.3053636  82.1967273  95.2244735  56.6854311
  82.8239312  94.8421812  57.2991836  81.3395192  95.0058937  57.0510004
  92.5961381 105.6307710  58.2908047  93.1401285 106.2437669  57.7963002
  92.0148226 106.1887289  58.8075060  78.9732816  97.0321164  42.6172666
  79.2686257  96.1231843  42.5639720  78.0720851  97.0108904  42.2953668
  90.8818894 108.7528428  49.4223075  90.7570034 107.9518168  48.9134020
  91.5397985 109.2474622  48.9337044  82.5027063  95.1077161  48.6000215
  81.7813648  95.7213129  48.4607688  83.2920318  95.6434926  48.5216861
  92.9453803 106.5537448  51.0502625  91.9984138 106.4342800  50.9780951
  93.2936576 105.6659946  51.1328886  85.3053376  92.4431587  54.8740866
  85.8287778  92.6893884  55.6367176  85.0865709  93.2751622  54.4544004
  80.7020657  94.7135262  42.7411991  80.3733363  93.8332641  42.5587097
  81.0560028  94.6582931  43.6288381  89.9500236 106.3490165  47.2506977
  89.8025198 105.4206872  47.4314547  90.7753730 106.3710255  46.7664052
  83.8162480  95.0008232  43.1087469  84.1558553  95.5294153  42.3866077
  84.2634601  95.3388638  43.8846035  93.5534358 107.1718723  48.3371850
  94.4780905 106.9661585  48.1996301  93.3849661 106.9235125  49.2461191
  86.5105921  93.3845282  52.5590537  86.1702742  92.5853095  52.9611217
  85.8044927  93.6846993  51.9867370  87.1622393  90.4694595  51.0117860
  87.9848462  89.9955073  50.8896750  87.4060457  91.2485079  51.5116546
  85.8030627  93.4982853  41.3080762  86.5238990  93.8764106  40.8044479
  85.1795932  94.2171730  41.4115740  89.9461750  94.2028002  42.2439094
  90.1625365  95.0852640  41.9427922  89.4655817  93.8114216  41.5144736
  84.6860972  97.1613715  48.8209839  84.5405552  97.4754019  49.7134120
  84.2086175  97.7798616  48.2680737  86.5457355  94.1516263  48.8690728
  86.5318923  93.2557357  48.5323026  87.2629783  94.1586927  49.5029014
  88.3983485  94.5853604  50.9143856  88.1401263  95.5070674  50.9128186
  87.8668526  94.1884038  51.6044320  93.3429674 107.6904391  43.6933941
  93.5166552 107.1250813  42.9407793  93.8358565 108.4905286  43.5113431
  79.1606634  99.7019060  51.7597500  78.6160102 100.4778868  51.8917774
  80.0385984 100.0489864  51.6016621  85.9494251  93.0330644  44.1378298
  86.0710162  92.1047290  44.3369186  85.6596293  93.0469330  43.2256614
  88.8185441  90.7185554  47.2745018  88.8407138  90.7824887  46.3196998
  89.2353500  89.8790063  47.4685524  99.1969065 100.4540814  45.3124241
  99.6400211  99.7048139  44.9143364  98.3195576 100.4450950  44.9297973
  94.3304847 107.0071155  40.7930839  95.0255751 107.6277848  41.0118154
  94.6727997 106.1566506  41.0683217  79.9472656  98.8288956  54.6527657
  79.2054392  98.9771592  55.2392287  79.6265400  99.0897222  53.7894406
  96.2296270 104.4570861  42.3218170  96.7547594 104.7958133  41.5967490
  96.1418622 103.5217876  42.1381305  87.8916318 108.3704934  54.4508047
  88.2003445 108.1254081  55.3230746  88.6891800 108.5751573  53.9626917
  87.9136930 110.5242844  46.6813423  87.4741921 110.0319223  47.3746280
  88.6645047 109.9815812  46.4405498  80.3929269 106.7154385  46.6838051
  81.2187289 106.4158157  46.3036695  80.0423321 105.9462007  47.1327840
  85.3610803 106.0680853  48.7535725  84.7390812 105.4051558  48.4537953
  86.0315669 106.0941985  48.0709373  78.5937874 104.6340711  47.6426985
  77.7569783 104.2062886  47.4610986  78.5661520 104.8273155  48.5797776
  85.4335330  94.5462641  58.3468231  85.4823486  95.4224764  57.9646001
  85.9757844  94.0040034  57.7739874  95.9190176 105.0903764  57.6269368
  95.1285719 105.0727903  57.0873867  95.6823530 105.6292058  58.3818405
  96.0388051 101.9396231  54.9402097  96.0886056 101.7746238  55.8817619
  95.9301974 101.0723490  54.5499977  84.9224309 104.6184776  42.2294185
  85.0712430 105.3020241  41.5760858  85.7290753 104.5989867  42.7443641
  93.3291813  97.9227159  56.2561403  94.2301676  97.7833624  55.9645401
  93.4039788  98.0881614  57.1959581  87.6634619  95.2994014  55.1014590
  86.7937928  95.5927580  54.8297178  87.8994099  95.8834459  55.8221853
  97.5406248 104.3593172  55.1844118  97.2491056 104.7223153  56.0207579
  96.9278379 103.6460181  55.0057450  98.7401930 101.9246052  47.7046688
  99.5748821 102.3635856  47.8684249  98.8761059 101.4484705  46.8854934
  95.7893436  99.4825787  53.6524176  96.2647557  99.6753433  52.8443027
  94.8659001  99.5384973  53.4067560  82.6776942 100.6449954  43.2355254
  82.4322984  99.7412284  43.4335465  82.8472857 100.6467105  42.2934732
  90.3673652  91.5173630  52.6180010  90.8855596  92.2534657  52.2926499
  90.0128785  91.8237624  53.4526769  81.9472590  96.3778312  40.7341416
  81.2541835  96.4522667  40.0781452  81.7024342  95.6138655  41.2562933
  90.6186247  87.9373913  48.1380907  90.8988000  87.2697102  48.7641333
  91.4036853  88.1303009  47.6255570  88.4219715 107.1132907  39.7005933
  87.8493682 107.7323094  39.2476405  88.9952509 107.6632269  40.2345855
  94.4895105  96.3591547  51.8852482  95.4412528  96.4589645  51.9064706
  94.3198555  95.5669816  52.3950566  92.5109484  93.4447130  52.0711883
  91.9159416  93.7252143  51.3758371  92.2259181  93.9341031  52.8428624
  91.6416975 107.3970057  40.8314515  92.5747648 107.3315619  41.0347391
  91.5540188 108.2326324  40.3729048  94.2704991 106.7135927  37.7918463
  94.1918623 106.3795791  38.6854221  95.0914658 107.2057695  37.7909935
  96.9683183  99.5797667  50.9994781  96.9359503  98.6413667  51.1854465
  97.5783806  99.6581703  50.2660606  88.8066514  98.4493720  37.0421985
  89.7525618  98.3199928  37.1110403  88.4280758  97.7108382  37.5191414
  97.1177671  96.3708710  51.0453065  96.6016720  95.5867167  50.8582993
  98.0017620  96.0427427  51.2099584  94.7788398  90.1149726  47.0048877
  94.5813219  89.8064814  47.8892209  95.3888104  90.8411365  47.1346807
 102.7859733 100.6413674  50.1400818 103.5163121 100.3798962  50.7008521
 102.1766678  99.9042395  50.1802886 100.8675030  98.7821536  50.7375269
 100.1408193  98.6477501  50.1291761 100.4522317  99.0898365  51.5431987
  88.6905206 102.5011466  58.5022642  89.6108216 102.6790065  58.6962689
  88.6554789 101.5567511  58.3502342  86.9909431  96.3743696  36.9776871
  86.0840886  96.0776809  37.0539584  87.2685412  96.0773514  36.1111157
  77.9087371  97.6950059  47.4275917  77.5890155  96.8415368  47.1350291
  77.3620799  97.9098638  48.1833884  81.6867279 100.4112500  51.1445424
  81.9053288 101.3429608  51.1633457  82.0993052 100.0520475  51.9300227
  88.6071496  90.9180586  43.1321112  87.7972225  90.5727671  43.5076358
  89.2955913  90.6088129  43.7208723  90.5362045  89.9958633  44.7545409
  91.0893083  90.4154086  45.4135432  90.7732131  89.0694381  44.7968365
  86.5595144  95.9845706  60.5348172  86.4591871  96.9340063  60.4660264
  86.3416686  95.6563945  59.6624243  85.7608215  93.2330631  37.1188850
  86.6227379  93.5585530  37.3784667  85.9458559  92.4462127  36.6061916
  77.7775631 101.3152971  49.3969039  77.0839102 100.9006924  48.8838993
  78.5248622 101.3573507  48.8002457  93.9140852  92.1059158  44.2624073
  93.3339521  92.7643962  43.8802125  93.6476784  91.2836502  43.8511490
  92.3644418  91.5064215  46.4645393  92.8644197  91.6180750  45.6559712
  93.0080026  91.2025268  47.1046202  86.4226414  99.4142845  59.3513234
  85.9393496 100.2143205  59.5577123  86.5087353  99.4250790  58.3980678
  79.6912374 101.2471225  47.2735053  79.6683062 101.3458912  46.3216937
  80.0013010 102.0936376  47.5952220  82.3499751 103.3047380  51.3881668
  83.3043005 103.2731322  51.3211599  82.1512275 102.8438003  52.2031894
  82.9399134 101.8748496  53.9552466  83.7592023 102.3692574  53.9787303
  83.2135941 100.9580464  53.9270033  92.6965730  94.2659248  43.3180421
  91.8091585  94.5508899  43.1000616  93.1119719  94.1053011  42.4707698
  96.0480266  94.2905769  47.0334760  96.8240656  94.7802222  47.3059377
  95.3228400  94.7163823  47.4906630  98.4852825  95.0033388  48.0908701
  99.0797315  94.7629124  47.3802009  98.5579408  94.2840519  48.7182237
  80.7049980 108.8466999  48.4051866  80.5704448 108.0867400  47.8389864
  80.2882043 109.5707899  47.9380655  91.8408943 104.0303923  37.4128441
  92.5444793 104.2353925  38.0286097  91.1171592 104.5980685  37.6777525
  92.6706754  99.7813784  43.5330711  92.6141955 100.2382335  42.6938344
  93.2235096  99.0204469  43.3553554  96.4811559  95.5703516  44.3580831
  96.2248494  95.1700152  45.1889038  95.8564427  96.2847310  44.2330970
 100.7923897  98.3099589  46.8652122 100.2323455  98.3792778  47.6383684
 100.1867401  98.1340574  46.1451618  83.8619106 109.7436316  48.6170308
  83.7451490 110.6881749  48.5148999  83.0411552 109.4409878  49.0056108
  93.7495641 104.4686452  39.4626901  94.5841245 104.0367650  39.2804376
  93.5879984 104.2968466  40.3903796  93.4041533 100.9718565  40.8283240
  93.3490337 100.8062837  39.8871685  92.7787588 101.6794598  40.9845430
  78.1934048  96.2086630  54.6544663  78.8392911  95.6985584  55.1431888
  77.9851199  96.9455311  55.2288088  90.7187440 103.2767477  60.1536803
  91.5878600 103.4508129  59.7923438  90.2394192 104.0961894  60.0312533
  86.7137658  90.4726674  40.4068559  86.7016328  91.4168514  40.5636830
  87.6061080  90.2896820  40.1128020  84.8873620 110.3964578  51.8326237
  85.7900867 110.4288188  52.1492732  84.6610990 109.4665029  51.8472573
  86.6427222 109.1495565  48.4936315  85.6922853 109.1497426  48.3800688
  86.9459708 108.4028299  47.9772350  90.5289778  87.0669451  44.6614496
  89.7622174  86.5127938  44.8071178  90.9400483  87.1391320  45.5228647
  82.5331539  93.3554247  58.7519677  83.3963000  92.9991052  58.9623001
  81.9596949  93.0168142  59.4395081 102.3779916 114.9856103  49.5582078
 103.0158326 114.8662850  48.8545418 102.2600759 115.9336947  49.6170030
  99.1869622 114.9383531  49.4943603  98.8488134 114.8224596  48.6064137
 100.0559390 114.5374696  49.4744609  95.0456438 116.7919008  45.4840493
  94.4821303 116.7008945  44.7156781  94.9308833 115.9718912  45.9642986
  99.6689405 116.0918383  55.4529808  99.6578046 115.6971181  54.5810312
  99.8310045 115.3584456  56.0463580  92.5920870 118.2870199  48.3224714
  93.3842162 117.9461024  47.9071013  92.8317520 118.3965174  49.2426867
  94.5511624 117.5479112  41.1942093  95.3242500 117.0008100  41.0554969
  94.9037022 118.4123362  41.4056554  96.3896666 118.8755495  54.4008992
  96.0986532 119.7801126  54.2855658  97.0253651 118.9172022  55.1153062
  97.3152873 116.2532343  50.9910352  97.9116445 116.0288366  50.2767315
  97.3727845 115.5117089  51.5935800  96.8877901 113.7071779  38.8260543
  97.1403422 113.1853300  38.0644006  95.9502461 113.5437924  38.9287226
 101.9321184 112.7107557  46.6335286 102.7184273 112.2926980  46.2825703
 102.1959889 113.6153649  46.8016934 102.1031262 118.1480407  41.3323943
 101.4677095 118.2215034  42.0444847 101.7728668 118.7374006  40.6543022
 107.3329611 112.6482790  47.5368264 108.0654783 112.0782007  47.7706094
 106.5768967 112.2604391  47.9774770  96.6074190 115.6099885  41.0284918
  96.4910448 114.9344788  41.6966002  96.7176450 115.1232258  40.2117071
  98.9505731 115.0710032  44.7331607  98.5863938 114.5440653  45.4444528
  99.8072847 114.6808501  44.5598092 104.8555032 106.3604364  51.9962873
 104.5238357 107.2299775  51.7724088 104.2600645 106.0440648  52.6756903
  98.5911218 110.0999931  39.7292955  98.7585620 110.9680168  40.0963426
  98.4008387 110.2627213  38.8054245 101.3486551 118.5616910  51.3958786
 101.0487274 119.4641949  51.2874593 101.0037611 118.2949093  52.2479939
  94.7999033 115.0130707  47.4295490  93.8749529 114.8806921  47.6373182
  95.0483446 115.7924926  47.9265433 104.7483695 111.0799450  49.0756223
 103.8400572 111.0114859  48.7814984 104.6971291 111.5571395  49.9038049
  98.5700439 112.5557589  40.7139622  98.4500064 113.0014640  41.5525102
  97.8753027 112.9042906  40.1553160  92.1607844 114.6563981  48.2639279
  92.2900225 114.9098460  49.1778691  91.4805295 115.2491689  47.9443934
  98.8224561 112.4989096  57.0191120  98.0457895 113.0583016  57.0093985
  99.4615124 112.9845879  57.5405990 106.6145341 109.2815889  50.8534097
 105.9719722 109.5748422  50.2073892 106.1100270 109.1668809  51.6587294
 104.2685505 113.0279062  41.5419956 105.1803361 113.2606449  41.3667654
 103.7595152 113.6116106  40.9795035  97.0770933 115.3074549  56.5809087
  97.8185618 115.8459593  56.3043911  96.3707919 115.9340838  56.7380639
 102.5526273 117.4503690  55.1781249 102.9609629 117.0086100  54.4335881
 101.8303534 116.8756317  55.4315442  98.9057343 112.3876297  52.5514806
  99.7518538 112.8115710  52.6949455  98.8455980 111.7309921  53.2453369
 102.8755087 118.0104880  48.9333538 102.2463950 118.1750595  48.2309606
 102.4880750 118.4246490  49.7044502 102.0556788 110.0480665  54.2095979
 101.8117720 110.8022725  53.6730255 102.3316719 110.4266013  55.0443226
 104.0095251 116.5919277  52.8873245 104.2212146 117.2351037  52.2107626
 103.9624999 115.7581594  52.4195175 101.6121480 109.2037098  49.7909817
 100.7505959 109.5018352  50.0826555 101.6383915 109.4207497  48.8590850
  98.4283049 117.7479289  46.1983623  98.8921395 118.0266992  45.4088245
  98.1639847 116.8462733  46.0156713  95.3207130 117.2950770  49.1363386
  95.8908487 117.7238038  48.4980871  95.9115242 117.0133355  49.8347572
  97.3651935 113.8702441  43.0073188  98.0675979 114.3223485  43.4747114
  97.0332564 113.2286260  43.6353081  95.8132297 112.4614198  57.3824397
  95.1830957 113.1430478  57.6159794  95.7068385 112.3497279  56.4377536
  91.1077269 112.1285994  48.3090322  90.3176323 112.3843522  47.8330432
  91.5988517 112.9434331  48.4142362  93.0592015 112.4930573  45.2673798
  92.2623178 112.6049267  45.7857294  92.8317607 112.8317225  44.4014689
  98.8897682 119.0175276  53.2156313  98.9542115 119.4795683  54.0514485
  98.1808606 118.3872641  53.3438623  89.3914972 112.3816484  50.7405312
  89.6423011 113.2663494  51.0062888  89.9274521 112.2021086  49.9680404
  98.6045700 120.6843384  43.0835293  98.4691375 121.5294919  43.5120141
  99.1455512 120.8862661  42.3201227  95.0913040 106.7634963  59.7449648
  94.6979985 106.2101162  60.4197293  95.9079180 107.0745542  60.1356166
  92.0575097 118.2018822  43.6563218  92.5699618 118.9962072  43.8068783
  92.7097810 117.5045112  43.5896820  93.8669982 121.3184578  45.7385971
  94.0436610 122.2402543  45.5506955  94.6626816 121.0042997  46.1680351
  98.0081001 108.1792842  57.3369905  98.7490714 108.7799996  57.2574367
  98.2398923 107.4370480  56.7787948  93.1522339 113.3649210  55.6148135
  93.0375854 112.4634467  55.9155234  92.2966856 113.6112906  55.2632951
  94.9901298 122.8362752  51.7396314  95.5408723 122.7079815  50.9673308
  94.1512773 123.1357641  51.3891207  98.7868469 119.1013879  56.0840545
  99.3196805 118.3402168  55.8539853  98.2582550 118.8087531  56.8264699
 101.9538164 104.2073945  51.6134187 101.6102433 105.0975587  51.5373297
 102.3217126 104.0175603  50.7503772  90.0224014 116.5307476  44.4322789
  90.8599236 116.9404484  44.2156496  90.2002282 115.5906918  44.4022983
 101.9188446 114.1982557  40.1206622 101.4035070 114.9687161  40.3595009
 101.6465755 113.5247693  40.7439683  99.5035557 109.0432257  45.1791860
  98.6477154 108.6539108  44.9997499  99.9162509 109.1224218  44.3191646
 101.0334704 106.5778601  49.5783420 100.5299500 106.5408736  48.7651225
 101.3265311 107.4871343  49.6380077  97.2777590 106.6617330  48.5849602
  98.1430587 106.4660139  48.2255491  97.3455099 106.4327682  49.5118958
 101.7074749 112.0709649  41.9466403 101.4024885 112.3855798  42.7976546
 102.6605192 112.1491069  41.9893736 100.1521181 118.2299872  43.5959357
  99.6242543 117.4952632  43.2832594  99.6508684 119.0074548  43.3499325
  94.8839909 108.8919538  45.9565968  95.4583661 108.6694720  45.2239161
  95.4710891 108.9608233  46.7094570 103.9419486 114.7793265  46.7630345
 104.4551368 115.4123257  47.2652055 104.5920710 114.1794461  46.3973705
  95.2109496 110.9223999  39.9761854  94.3746808 111.2598686  40.2971128
  95.0714266 110.7872979  39.0388991  97.1862577 105.7660787  44.6841038
  96.5326989 105.4509804  44.0597653  97.1443051 105.1436528  45.4100861
  98.2973781 116.0480082  36.5994330  97.3900843 115.8169336  36.7985479
  98.7944813 115.2517701  36.7868311 100.4200317 112.2542721  49.0088685
  99.5022878 112.4757668  48.8510374 100.8360461 112.3289031  48.1500393
 101.2035365 113.6534136  44.1391366 101.9507184 114.1655534  43.8298488
 101.4726954 113.3318189  44.9995759  99.4762015 116.1492677  41.1218320
  98.5673234 115.8651710  41.2190790  99.5057099 116.5691756  40.2621627
 103.6514202 110.6891253  46.1210155 102.9136959 110.1768639  46.4520398
 103.9040975 110.2491634  45.3093432 103.7525829 103.4667505  46.7151924
 104.0584706 102.6064868  46.4277839 104.4778434 104.0585125  46.5150918
  90.0450185 113.8698191  45.1033522  89.8474585 113.2767552  44.3784589
  89.4896849 113.5650401  45.8209461  98.0246909 113.7621298  47.2228115
  98.0795519 112.8095134  47.1470592  97.2138111 113.9180737  47.7069414
  99.1738103 117.6901421  38.4606399  98.7357533 116.9737280  38.0012036
  99.9148544 117.9177536  37.8991490  95.9639269 112.3798357  44.9818494
  95.1507134 112.6792528  45.3883686  96.4598263 111.9854046  45.6992976
 101.5613481 112.8440182  53.8133388 101.9162868 113.0711655  54.6727854
 102.2085612 113.1758559  53.1910643  95.4553344 109.9516713  50.5979729
  96.0952723 109.8105472  49.9002693  94.6230874 109.6651226  50.2218331
  96.2313648 119.2519143  46.7114722  97.0254246 118.7569463  46.5097297
  95.5205340 118.7237006  46.3482427  92.5396411 113.3962225  42.7874474
  91.6093999 113.3346681  43.0044436  92.6353883 112.8738178  41.9911116
  92.4581960 109.9217038  45.3752716  92.7188777 110.8362371  45.2661876
  93.2799132 109.4541480  45.5249329  93.9306885 111.3354795  52.5451541
  94.6029939 111.1272157  51.8964189  93.1036672 111.1376881  52.1056773
  99.8332457 107.9616736  54.5617201  99.1860372 108.6606686  54.4681678
 100.6033473 108.3952880  54.9293450 100.0096592 115.7997501  52.6214021
 100.9388652 115.9508661  52.4482988  99.5887622 115.8881522  51.7662668
  98.8084924 119.8248165  50.3912559  98.6696009 119.4566950  51.2638497
  98.0199520 120.3395805  50.2196517 100.3590139 119.2029768  47.7801397
 100.0239971 119.1630538  48.6759046  99.8594084 118.5374484  47.3071807
  94.3334383 114.6097398  53.3053978  94.1954181 113.8777637  53.9065517
  95.2439306 114.5206298  53.0238165 103.2949330 116.5485802  38.0538456
 102.6778501 115.8232631  37.9571509 102.8265819 117.3095163  37.7105530
  96.9616683 114.3217357  52.7937657  97.6716302 113.6810550  52.7524276
  96.9185991 114.5730252  53.7163838  95.6745617 111.3082575  54.6133297
  95.1382974 110.8573314  55.2654893  95.0862326 111.4428484  53.8703761
  95.0847876 110.7671227  37.1759760  94.2077343 110.6460027  36.8122007
  95.5605629 109.9757305  36.9238649  86.6050016 115.5548386  47.2701268
  87.2921056 115.2410116  46.6822283  86.4498145 116.4589751  46.9968519
  91.4084739 110.4438583  51.6986291  91.3242927 109.8364253  50.9636701
  90.5867445 110.9347601  51.6995788 101.5808452 108.9292147  47.0656486
 102.0777152 108.1762109  46.7457557 100.8095434 108.9656463  46.4999696
 102.6638233 117.6863834  44.6394910 101.7294512 117.8065296  44.4699614
 102.8414902 116.7836300  44.3754920  98.1643421 111.0709529  46.7928171
  97.7941209 110.5180570  47.4809077  98.6602514 110.4667663  46.2403171
 106.0510784 113.5281153  45.1744944 106.5171237 114.3609145  45.1005247
 106.5018285 113.0626135  45.8790202  95.9932620 121.5307025  53.8883189
  96.6942079 122.1643507  54.0412583  95.5227735 121.8721756  53.1278828
 104.0227447 105.8961740  49.2135845 103.1090527 106.1265967  49.3818052
 104.4520549 105.9800184  50.0649878 103.7933906 114.0851632  51.7135739
 103.1405356 114.3327539  51.0588192 104.1714286 113.2715770  51.3798217
  99.8421479 114.8271443  58.2001776  99.1662116 114.7265572  58.8704152
 100.6649113 114.6710657  58.6637774  91.5900338 121.0643380  50.8214292
  92.1753775 120.3187067  50.9542196  91.3925176 121.3747336  51.7050955
  94.4438993 124.0994627  45.8376734  93.7749368 124.5840755  45.3540774
  94.3051863 124.3463847  46.7520113  86.1817992 113.6348980  49.5418735
  86.2202092 113.1012570  50.3355853  85.6758285 113.1084185  48.9229712
  93.5608755 108.4813520  53.0381277  93.6250081 109.3428351  52.6258675
  93.4975875 107.8687522  52.3053636  93.0361027 110.5536653  56.6854311
  93.6633066 110.1713730  57.2991836  92.1788946 110.3350855  57.0510004
  89.8126570 112.3613082  42.6172666  90.1080011 111.4523760  42.5639720
  88.9114606 112.3400821  42.2953668  93.3420817 110.4369078  48.6000215
  92.6207403 111.0505046  48.4607688  94.1314073 110.9726843  48.5216861
  96.1447131 107.7723505  54.8740866  96.6681532 108.0185802  55.6367176
  95.9259464 108.6043540  54.4544004  91.5414412 110.0427180  42.7411991
  91.2127118 109.1624559  42.5587097  91.8953782 109.9874848  43.6288381
  94.6556235 110.3300149  43.1087469  94.9952307 110.8586071  42.3866077
  95.1028355 110.6680555  43.8846035  97.3499676 108.7137200  52.5590537
  97.0096496 107.9145013  52.9611217  96.6438682 109.0138911  51.9867370
  98.0016147 105.7986513  51.0117860  98.8242217 105.3246991  50.8896750
  98.2454211 106.5776996  51.5116546  96.6424382 108.8274771  41.3080762
  97.3632744 109.2056024  40.8044479  96.0189686 109.5463648  41.4115740
 100.7855505 109.5319920  42.2439094 101.0019119 110.4144558  41.9427922
 100.3049572 109.1406133  41.5144736  95.5254726 112.4905633  48.8209839
  95.3799307 112.8045936  49.7134120  95.0479930 113.1090533  48.2680737
  97.3851109 109.4808181  48.8690728  97.3712678 108.5849274  48.5323026
  98.1023537 109.4878845  49.5029014  99.2377240 109.9145521  50.9143856
  98.9795018 110.8362592  50.9128186  98.7062280 109.5175956  51.6044320
  90.0000388 115.0310978  51.7597500  89.4553856 115.8070786  51.8917774
  90.8779738 115.3781782  51.6016621  96.7888005 108.3622561  44.1378298
  96.9103916 107.4339208  44.3369186  96.4990047 108.3761247  43.2256614
  99.6579195 106.0477472  47.2745018  99.6800892 106.1116805  46.3196998
 100.0747254 105.2081981  47.4685524  90.7866410 114.1580874  54.6527657
  90.0448146 114.3063509  55.2392287  90.4659155 114.4189139  53.7894406
  91.2323024 122.0446303  46.6838051  92.0581044 121.7450074  46.3036695
  90.8817076 121.2753925  47.1327840  96.2004557 121.3972771  48.7535725
  95.5784566 120.7343476  48.4537953  96.8709424 121.4233903  48.0709373
  89.4331629 119.9632629  47.6426985  88.5963537 119.5354803  47.4610986
  89.4055274 120.1565072  48.5797776  96.2729085 109.8754559  58.3468231
  96.3217240 110.7516682  57.9646001  96.8151599 109.3331952  57.7739874
  95.7618064 119.9476694  42.2294185  95.9106184 120.6312159  41.5760858
  96.5684507 119.9281784  42.7443641 104.1685568 113.2519076  56.2561403
 105.0695430 113.1125541  55.9645401 104.2433542 113.4173531  57.1959581
  98.5028373 110.6285931  55.1014590  97.6331682 110.9219497  54.8297178
  98.7387853 111.2126376  55.8221853 106.6287190 114.8117705  53.6524176
 107.1041312 115.0045351  52.8443027 105.7052756 114.8676890  53.4067560
  93.5170697 115.9741872  43.2355254  93.2716739 115.0704202  43.4335465
  93.6866612 115.9759022  42.2934732 101.2067407 106.8465548  52.6180010
 101.7249351 107.5826575  52.2926499 100.8522540 107.1529541  53.4526769
  92.7866345 111.7070229  40.7341416  92.0935589 111.7814584  40.0781452
  92.5418096 110.9430573  41.2562933 101.4580001 103.2665831  48.1380907
 101.7381755 102.5989020  48.7641333 102.2430608 103.4594926  47.6255570
 105.3288859 111.6883465  51.8852482 106.2806282 111.7881562  51.9064706
 105.1592310 110.8961733  52.3950566 103.3503239 108.7739048  52.0711883
 102.7553171 109.0544061  51.3758371 103.0652936 109.2632949  52.8428624
  99.6460268 113.7785637  37.0421985 100.5919373 113.6491845  37.1110403
  99.2674513 113.0400299  37.5191414 107.9571426 111.7000628  51.0453065
 107.4410474 110.9159084  50.8582993 108.8411374 111.3719344  51.2099584
 105.6182153 105.4441643  47.0048877 105.4206974 105.1356732  47.8892209
 106.2281858 106.1703282  47.1346807  99.5298961 117.8303383  58.5022642
 100.4501970 118.0081982  58.6962689  99.4948544 116.8859429  58.3502342
  97.8303185 111.7035614  36.9776871  96.9234641 111.4068726  37.0539584
  98.1079166 111.4065432  36.1111157  88.7481126 113.0241977  47.4275917
  88.4283910 112.1707285  47.1350291  88.2014554 113.2390555  48.1833884
  92.5261033 115.7404418  51.1445424  92.7447043 116.6721526  51.1633457
  92.9386807 115.3812393  51.9300227  99.4465251 106.2472503  43.1321112
  98.6365979 105.9019588  43.5076358 100.1349668 105.9380047  43.7208723
 101.3755799 105.3250550  44.7545409 101.9286838 105.7446004  45.4135432
 101.6125886 104.3986298  44.7968365  97.3988898 111.3137624  60.5348172
  97.2985625 112.2631981  60.4660264  97.1810440 110.9855863  59.6624243
  96.6001970 108.5622549  37.1188850  97.4621134 108.8877447  37.3784667
  96.7852314 107.7754045  36.6061916  88.6169386 116.6444889  49.3969039
  87.9232857 116.2298841  48.8838993  89.3642377 116.6865425  48.8002457
 104.7534606 107.4351075  44.2624073 104.1733275 108.0935879  43.8802125
 104.4870539 106.6128420  43.8511490 103.2038173 106.8356133  46.4645393
 103.7037951 106.9472668  45.6559712 103.8473781 106.5317186  47.1046202
  97.2620168 114.7434763  59.3513234  96.7787250 115.5435123  59.5577123
  97.3481108 114.7542708  58.3980678  90.5306128 116.5763142  47.2735053
  90.5076816 116.6750830  46.3216937  90.8406765 117.4228293  47.5952220
  93.1893506 118.6339297  51.3881668  94.1436760 118.6023240  51.3211599
  92.9906030 118.1729921  52.2031894  93.7792888 117.2040413  53.9552466
  94.5985777 117.6984492  53.9787303  94.0529696 116.2872382  53.9270033
 103.5359484 109.5951166  43.3180421 102.6485339 109.8800816  43.1000616
 103.9513473 109.4344929  42.4707698 106.8874020 109.6197687  47.0334760
 107.6634411 110.1094139  47.3059377 106.1622155 110.0455741  47.4906630
 109.3246579 110.3325306  48.0908701 109.9191070 110.0921042  47.3802009
 109.3973163 109.6132437  48.7182237  91.5443735 124.1758917  48.4051866
  91.4098203 123.4159318  47.8389864  91.1275797 124.8999817  47.9380655
 103.5100508 115.1105702  43.5330711 103.4535709 115.5674253  42.6938344
 104.0628850 114.3496386  43.3553554 107.3205314 110.8995434  44.3580831
 107.0642248 110.4992069  45.1889038 106.6958182 111.6139228  44.2330970
 104.2435287 116.3010483  40.8283240 104.1884091 116.1354754  39.8871685
 103.6181343 117.0086516  40.9845430  89.0327802 111.5378547  54.6544663
  89.6786666 111.0277501  55.1431888  88.8244953 112.2747229  55.2288088
  97.5531413 105.8018592  40.4068559  97.5410083 106.7460432  40.5636830
  98.4454835 105.6188737  40.1128020 101.3683532 102.3961369  44.6614496
 100.6015928 101.8419855  44.8071178 101.7794237 102.4683237  45.5228647
  93.3725293 108.6846164  58.7519677  94.2356755 108.3282969  58.9623001
  92.7990704 108.3460059  59.4395081  37.3417390   0.0166720  36.2827384
  37.9795800  -0.1026533  35.5790725  37.2238233   0.9647564  36.3415337
  34.1507096  -0.0305852  36.2188909  33.8125608  -0.1464788  35.3309444
  35.0196865  -0.4314687  36.1989915  34.6326879   1.1228999  42.1775115
  34.6215520   0.7281798  41.3055618  34.7947519   0.3895072  42.7708886
  27.5558344   3.3180816  35.0470021  28.3479636   2.9771640  34.6316320
  27.7954994   3.4275791  35.9672174  31.3534140   3.9066111  41.1254299
  31.0624006   4.8111742  41.0100965  31.9891125   3.9482639  41.8398368
  32.2790347   1.2842960  37.7155658  32.8753920   1.0598982  37.0012621
  32.3365319   0.5427705  38.3181106  42.2967086  -2.3206593  34.2613571
  43.0292258  -2.8907377  34.4951401  41.5406441  -2.7084993  34.7020077
  39.8192506  -8.6085019  38.7208180  39.4875831  -7.7389608  38.4969395
  39.2238119  -8.9248735  39.4002210  36.3124026   3.5927527  38.1204092
  36.0124749   4.4952566  38.0119900  35.9675085   3.3259710  38.9725245
  39.7121169  -3.8889933  35.8001530  38.8038047  -3.9574525  35.5060291
  39.6608765  -3.4117988  36.6283355  31.2944805  10.3571847  31.0875060
  31.2168835  11.3079672  31.1663541  30.6906449  10.0117720  31.7449986
  33.7862035  -2.4700287  43.7436427  33.0095369  -1.9106367  43.7339292
  34.4252598  -1.9843504  44.2651297  41.5782816  -5.6873495  37.5779404
  40.9357196  -5.3940961  36.9319198  41.0737744  -5.8020574  38.3832600
  32.0408407   0.3385166  43.3054394  32.7823092   0.8770210  43.0289218
  31.3345393   0.9651455  43.4625946  37.5163747   2.4814306  41.9026555
  37.9247103   2.0396717  41.1581188  36.7941009   1.9066934  42.1560748
  33.8694817  -2.5813087  39.2760112  34.7156012  -2.1573673  39.4194761
  33.8093455  -3.2379463  39.9698676  37.8392562   3.0415497  35.6578844
  37.2101424   3.2061211  34.9554912  37.4518224   3.4557107  36.4289808
  41.7181794   3.9769935  33.0123208  41.0332832   4.3568836  32.4620241
  41.8025643   4.5865261  33.7455156  37.0194262  -4.9208719  40.9341286
  36.7755194  -4.1666658  40.3975562  37.2954193  -4.5423371  41.7688533
  38.9732725   1.6229894  39.6118552  39.1849620   2.2661654  38.9352933
  38.9262473   0.7892210  39.1440482  33.3920524   2.7789905  32.9228929
  33.8558869   3.0577608  32.1333552  33.1277322   1.8773350  32.7402020
  30.2844605   2.3261387  35.8608693  30.8545962   2.7548655  35.2226177
  30.8752717   2.0443971  36.5592878  30.7769771  -2.5075186  44.1069704
  30.1468432  -1.8258905  44.3405101  30.6705859  -2.6192104  43.1622842
  40.0878553   4.5001849  37.7840909  40.9095997   4.0982037  37.5023591
  40.0840956   4.3970083  38.7357025  33.8535157   4.0485893  39.9401619
  33.9179589   4.5106300  40.7759791  33.1446081   3.4183257  40.0683929
  48.1784546   0.8440598  34.1325880  47.4248255   0.2747996  33.9769885
  48.3132087   0.8103262  35.0796515  28.8307456   6.3495194  32.4631278
  29.0074085   7.2713159  32.2752262  29.6264290   6.0353614  32.8925658
  35.1951651   6.3377567  43.9380942  34.7515505   5.5513945  43.6201846
  35.8568864   6.5256717  43.2724833  29.9538772   7.8673368  38.4641620
  30.5046197   7.7390432  37.6918614  29.1150248   8.1668257  38.1136513
  37.2932889   6.6180367  41.9662343  37.2751364   7.4389248  41.4742612
  38.2152809   6.4934442  42.1912484  33.7505943   4.1324496  42.8085852
  34.2834280   3.3712784  42.5785159  33.2220024   3.8398148  43.5510006
  40.0951502   1.4559509  35.4371710  39.4375176   2.1458770  35.5251838
  40.8991901   1.8455941  35.7805696  38.9056960  -0.1896118  33.4875652
  39.4188842   0.4433873  33.9897361  39.5558184  -0.7894923  33.1219012
  35.3837791  -2.7146663  35.7333992  34.4660353  -2.4931716  35.5755680
  35.7997935  -2.6400352  34.8745699  39.6718757   4.7909883  31.6154794
  39.2181084   3.9500793  31.6719985  39.0412723   5.4271281  31.9529574
  38.1151696   6.6286380  32.5504612  38.4074670   7.1891437  31.8316978
  38.6250316   6.9214941  33.3057771  33.0785321   7.4066731  33.6398066
  33.0361500   7.6327577  32.7106598  33.9948020   7.1730105  33.7883867
  36.5250955  -2.1249202  40.5378695  36.8800343  -1.8977728  41.3973161
  37.1723086  -1.7930825  39.9155950  42.2548692   0.9969234  31.2428024
  42.1166590   1.1870830  30.3149213  41.8984911   1.7588617  31.6996075
  42.2818071   3.0645761  36.2539295  42.7154578   2.9721050  37.1022349
  42.9949652   3.0403262  35.6159311  31.1951122   4.2829760  33.4360028
  31.9891720   3.7880080  33.2342603  30.4842814   3.7547623  33.0727734
  36.0145966   6.6647855  37.7872396  36.0682989   7.2338792  38.5550112
  35.1460748   6.8349740  37.4226433  43.1433621   3.1069462  38.7872181
  43.3369511   4.0115272  39.0331456  43.0434239   2.6476881  39.6210766
  38.2048730   3.2576205  44.3613061  38.0534236   3.0286756  43.4443145
  38.1953409   4.2146806  44.3744406  34.9734066   0.8308117  39.3459328
  35.9026126   0.9819277  39.1728295  34.5525096   0.9192138  38.4907974
  33.7722398   4.8558782  37.1157865  33.6333484   4.4877566  37.9883803
  32.9836994   5.3706421  36.9441823  34.3670550   9.9567878  28.4583402
  34.5422306   9.4855922  29.2729025  33.6803338  10.5833645  28.6864663
  35.3227613   4.2340385  34.5046703  34.9877446   4.1941155  35.4004353
  34.8231559   3.5685100  34.0317113  29.2971857  -0.3591985  40.0299284
  29.1591655  -1.0911747  40.6310823  30.2076780  -0.4483085  39.7483472
  31.9254158  -0.6472026  39.5182964  32.6353776  -1.2878834  39.4769582
  31.8823466  -0.3959131  40.4409145  39.9140936   6.2895327  42.4389543
  39.8553482   5.6054547  41.7720126  40.3160455   7.0314317  41.9870169
  28.9331635  13.1057241  35.2323262  29.1728233  13.7375765  35.9102281
  28.0900832  12.7545281  35.5188621  39.9158344   4.2534911  40.6703523
  39.0285122   3.9160833  40.7929922  40.4856895   3.5217942  40.9072288
  33.4459497   8.9136364  37.6364766  33.3729668   9.7191335  38.1484071
  33.0036890   9.1128329  36.8112787  33.2349277   8.1508134  31.1467588
  32.4516798   8.6929814  31.2405812  33.9342022   8.6682113  31.5461829
  44.3975684  -0.3356871  35.4320084  44.3865560   0.5467844  35.0614018
  43.5293064  -0.6885321  35.2374622  35.9058180   8.8123198  39.7922925
  36.6186153   9.4470662  39.7198826  35.4148209   8.9087064  38.9762927
  37.6275707   2.7174450  31.3640216  36.6931986   2.8375913  31.1944921
  37.8052376   1.8146917  31.1000226  41.0148259  -1.4408230  31.8990251
  41.4808711  -0.6080239  31.8250553  41.4655759  -1.9063249  32.6035509
  30.9570094   6.5617641  40.6128496  31.6579554   7.1954124  40.7657890
  30.4865209   6.9032373  39.8524135  38.7571380  -0.8837752  38.4381046
  38.1042830  -0.6361844  37.7833499  39.1351760  -1.6973613  38.1043523
  35.7178554   9.1521942  32.5409216  35.9000948   8.3343598  33.0036969
  36.5411540   9.3689634  32.1034106  36.0520719   8.0790127  29.8024265
  36.5808486   7.5682581  29.1894427  36.3148939   7.7632657  30.6669798
  34.8058953  -0.1417940  44.9247083  34.1299590  -0.2423811  45.5949458
  35.6286587  -0.2978727  45.3883080  26.5537812   6.0953996  37.5459598
  27.1391249   5.3497684  37.6787502  26.3562651   6.4057953  38.4296262
  29.4076467   9.1305243  32.5622041  28.7386843   9.6151371  32.0786081
  29.2689337   9.3774464  33.4765419  33.5481736  11.1648987  39.1604699
  34.1000044  11.3280609  39.9253784  33.8887929  11.7553425  38.4884724
  38.3992610   5.9910245  45.0153353  38.9432514   6.6040203  44.5208308
  37.8179455   6.5489823  45.5320366  36.6850123   9.1130963  36.1468381
  36.5601263   8.3120702  35.6379327  37.3429214   9.6077156  35.6582351
  38.7485032   6.9139983  37.7747931  37.8015367   6.7945334  37.7026258
  39.0967805   6.0262481  37.8574193  35.7531465   6.7092699  33.9752283
  35.6056427   5.7809406  34.1559853  36.5784958   6.7312790  33.4909359
  39.3565587   7.5321258  35.0617156  40.2812134   7.3264119  34.9241607
  39.1880890   7.2837659  35.9706498  39.1460903   8.0506925  30.4179248
  39.3197780   7.4853347  29.6653100  39.6389794   8.8507820  30.2358738
  45.0000294   0.8143348  32.0369547  45.4431440   0.0650673  31.6388671
  44.1226804   0.8053484  31.6543279  40.1336075   7.3673689  27.5176146
  40.8286980   7.9880382  27.7363461  40.4759226   6.5169041  27.7928524
  42.0327499   4.8173395  29.0463477  42.5578823   5.1560668  28.3212797
  41.9449851   3.8820410  28.8626611  33.6947547   8.7307469  41.1753353
  34.0034674   8.4856615  42.0476053  34.4923029   8.9354107  40.6872224
  33.7168159  10.8845378  33.4058730  33.2773150  10.3921757  34.0991587
  34.4676276  10.3418346  33.1650805  26.1960498   7.0756919  33.4083358
  27.0218518   6.7760691  33.0282001  25.8454550   6.3064542  33.8573147
  31.1642031   6.4283387  35.4781032  30.5422041   5.7654092  35.1783259
  31.8346898   6.4544519  34.7954679  41.7221405   5.4506299  44.3514675
  40.9316948   5.4330437  43.8119174  41.4854759   5.9894592  45.1063711
  41.8419280   2.2998765  41.6647403  41.8917285   2.1348772  42.6062926
  41.7333203   1.4326024  41.2745284  39.1323042  -1.7170307  42.9806710
  40.0332905  -1.8563842  42.6890708  39.2071017  -1.5515852  43.9204887
  33.4665847  -4.3403452  41.8259896  32.5969157  -4.0469886  41.5542485
  33.7025328  -3.7563007  42.5467160  43.3437476   4.7195706  41.9089425
  43.0522285   5.0825687  42.7452886  42.7309608   4.0062715  41.7302757
  44.5433159   2.2848586  34.4291995  45.3780050   2.7238390  34.5929555
  44.6792288   1.8087239  33.6100241  41.5924665  -0.1571679  40.3769483
  42.0678786   0.0355967  39.5688334  40.6690230  -0.1012493  40.1312866
  40.2926334  -3.2805919  38.6097788  41.2443757  -3.1807821  38.6310012
  40.1229784  -4.0727650  39.1195873  38.3140713  -6.1950336  38.7957189
  37.7190645  -5.9145323  38.1003678  38.0290410  -5.7056435  39.5673930
  42.7714411  -0.0599799  37.7240088  42.7390732  -0.9983798  37.9099772
  43.3815035   0.0184238  36.9905913  42.9208900  -3.2688756  37.7698371
  42.4047949  -4.0530299  37.5828300  43.8048848  -3.5970039  37.9344891
  48.5890961   1.0016208  36.8646125  49.3194350   0.7401496  37.4253828
  47.9797907   0.2644930  36.9048193  46.6706258  -0.8575930  37.4620576
  45.9439422  -0.9919965  36.8537068  46.2553545  -0.5499101  38.2677294
  34.4936435   2.8614000  45.2267949  35.4139444   3.0392599  45.4207996
  34.4586018   1.9170045  45.0747648  27.4898507   0.7715035  37.8690730
  27.7084517   1.7032142  37.8878764  27.9024281   0.4123009  38.6545534
  32.3626373  -3.6551760  47.2593479  32.2623100  -2.7057403  47.1905570
  32.1447915  -3.9833521  46.3869549  32.2257643  -0.2254621  46.0758541
  31.7424724   0.5745739  46.2822430  32.3118582  -0.2146676  45.1225985
  28.1530980   3.6649914  38.1126975  29.1074234   3.6333856  38.0456906
  27.9543504   3.2040538  38.9277200  28.7430362   2.2351030  40.6797772
  29.5623251   2.7295109  40.7032609  29.0167170   1.3182998  40.6515340
  41.8511495  -5.3491697  33.7580067  42.6271885  -4.8595244  34.0304684
  41.1259629  -4.9233643  34.2151936  44.2884053  -4.6364077  34.8154008
  44.8828544  -4.8768342  34.1047316  44.3610637  -5.3556947  35.4427544
  26.5081209   9.2069533  35.1297172  26.3735677   8.4469934  34.5635170
  26.0913271   9.9310433  34.6625961  46.5955126  -1.3297877  33.5897429
  46.0354684  -1.2604687  34.3628991  45.9898629  -1.5056892  32.8696925
  29.6650335  10.1038850  35.3415615  29.5482719  11.0484283  35.2394305
  28.8442781   9.8012412  35.7301414  36.5218669   3.6370011  46.8782110
  37.3909828   3.8110664  46.5168745  36.0425420   4.4564428  46.7557839
  30.6904849  10.7567112  38.5571543  31.5932096  10.7890723  38.8738038
  30.4642219   9.8267563  38.5717879  32.4458451   9.5098099  35.2181622
  31.4954082   9.5099961  35.1045994  32.7490937   8.7630833  34.7017657
  48.1811145  15.3458637  36.2827384  48.8189555  15.2265385  35.5790725
  48.0631987  16.2939481  36.3415337  44.9900851  15.2986065  36.2188909
  44.6519362  15.1827130  35.3309444  45.8590619  14.8977230  36.1989915
  40.8487667  17.1521542  32.2085800  40.2852532  17.0611479  31.4402088
  40.7340062  16.3321446  32.6888293  45.4720634  16.4520917  42.1775115
  45.4609275  16.0573715  41.3055618  45.6341273  15.7186990  42.7708886
  38.3952098  18.6472733  35.0470021  39.1873390  18.3063558  34.6316320
  38.6348749  18.7567708  35.9672174  46.4287225  20.8192510  27.5200265
  45.7775205  21.4046590  27.1334279  47.2231588  21.3498704  27.5795303
  40.3542852  17.9081647  27.9187399  41.1273728  17.3610634  27.7800275
  40.7068251  18.7725896  28.1301861  42.1927895  19.2358029  41.1254299
  41.9017761  20.1403660  41.0100965  42.8284879  19.2774557  41.8398368
  43.1184102  16.6134877  37.7155658  43.7147674  16.3890900  37.0012621
  43.1759073  15.8719623  38.3181106  42.6909130  14.0674313  25.5505849
  42.9434651  13.5455834  24.7889312  41.7533689  13.9040458  25.6532533
  47.7352413  13.0710091  33.3580593  48.5215502  12.6529514  33.0071010
  47.9991117  13.9756183  33.5262241  47.9062490  18.5082941  28.0569249
  47.2708323  18.5817568  28.7690154  47.5759897  19.0976540  27.3788329
  53.1360840  13.0085324  34.2613571  53.8686012  12.4384541  34.4951401
  52.3800196  12.6206925  34.7020077  42.4105419  15.9702419  27.7530224
  42.2941677  15.2947322  28.4211309  42.5207679  15.4834793  26.9362377
  44.7536960  15.4312566  31.4576913  44.3895167  14.9043187  32.1689835
  45.6104076  15.0411035  31.2843399  50.6586261   6.7206898  38.7208180
  50.3269585   7.5902309  38.4969395  50.0631874   6.4043182  39.4002210
  44.3942447  10.4602466  26.4538262  44.5616849  11.3282702  26.8208733
  44.2039616  10.6229747  25.5299551  47.1517780  18.9219444  38.1204092
  46.8518503  19.8244483  38.0119900  46.8068840  18.6551628  38.9725245
  40.6030262  15.3733241  34.1540797  39.6780758  15.2409455  34.3618489
  40.8514675  16.1527461  34.6510739  50.5514924  11.4401985  35.8001530
  49.6431801  11.3717393  35.5060291  50.5002520  11.9173930  36.6283355
  44.3731668  12.9160123  27.4384929  44.2531293  13.3617174  28.2770409
  43.6784256  13.2645441  26.8798467  37.9639073  15.0166515  34.9884586
  38.0931454  15.2700994  35.9023998  37.2836524  15.6094223  34.6689241
  42.1338560  25.6863765  31.0875060  42.0562590  26.6371590  31.1663541
  41.5300203  25.3409637  31.7449986  44.6255790  12.8591630  43.7436427
  43.8489124  13.4185550  43.7339292  45.2646353  13.3448413  44.2651297
  52.4176570   9.6418423  37.5779404  51.7750951   9.9350956  36.9319198
  51.9131499   9.5271343  38.3832600  50.0716734  13.3881596  28.2665263
  50.9834590  13.6208983  28.0912960  49.5626381  13.9718640  27.7040341
  42.8802162  15.6677084  43.3054394  43.6216846  16.2062128  43.0289218
  42.1739147  16.2943372  43.4625946  48.3557502  17.8106224  41.9026555
  48.7640858  17.3688635  41.1581188  47.6334763  17.2358852  42.1560748
  44.7088572  12.7478831  39.2760112  45.5549767  13.1718244  39.4194761
  44.6487209  12.0912455  39.9698676  48.6786316  18.3707415  35.6578844
  48.0495179  18.5353129  34.9554912  48.2911978  18.7849024  36.4289808
  52.5575548  19.3061853  33.0123208  51.8726586  19.6860754  32.4620241
  52.6419397  19.9157179  33.7455156  47.8588017  10.4083199  40.9341286
  47.6148949  11.1625260  40.3975562  48.1347947  10.7868547  41.7688533
  49.8126480  16.9521812  39.6118552  50.0243375  17.5953571  38.9352933
  49.7656228  16.1184128  39.1440482  47.4152709   9.5639632  36.5155124
  46.5537188   9.8620886  36.8071861  47.4415143   9.7810031  35.5836156
  44.2314278  18.1081823  32.9228929  44.6952624  18.3869526  32.1333552
  43.9671076  17.2065267  32.7402020  41.1238359  17.6553304  35.8608693
  41.6939716  18.0840573  35.2226177  41.7146471  17.3735889  36.5592878
  43.1683164  14.2304975  29.7318495  43.8707208  14.6826019  30.1992421
  42.8363793  13.5888794  30.3598388  41.6163526  12.8216732  44.1069704
  40.9862186  13.5033013  44.3405101  41.5099614  12.7099813  43.1622842
  36.9108498  12.4888528  35.0335628  36.1207552  12.7446056  34.5575739
  37.4019745  13.3036866  35.1387669  50.9272308  19.8293767  37.7840909
  51.7489751  19.4273954  37.5023591  50.9234711  19.7262001  38.7357025
  38.8623244  12.8533107  31.9919105  38.0654407  12.9651801  32.5102601
  38.6348836  13.1919759  31.1259995  44.6928911  19.3777810  39.9401619
  44.7573344  19.8398217  40.7759791  43.9839835  18.7475175  40.0683929
  35.1946201  12.7419018  37.4650619  35.4454240  13.6266028  37.7308195
  35.7305750  12.5623620  36.6925711  59.0178301  16.1732515  34.1325880
  58.2642009  15.6039914  33.9769885  59.1525842  16.1395180  35.0796515
  44.4076929  21.0445918  29.8080600  44.2722604  21.8897453  30.2365448
  44.9486741  21.2465195  29.0446534  40.8944268   7.1237498  46.4694955
  40.5011214   6.5703696  47.1442599  41.7110409   7.4348076  46.8601473
  37.8606326  18.5621356  30.3808525  38.3730847  19.3564606  30.5314090
  38.5129039  17.8647646  30.3142126  39.6701211  21.6787112  32.4631278
  39.8467839  22.6005077  32.2752262  40.4658044  21.3645531  32.8925658
  43.8112229   8.5395377  44.0615212  44.5521943   9.1402530  43.9819674
  44.0430152   7.7973014  43.5033254  38.9553567  13.7251744  42.3393441
  38.8407083  12.8237001  42.6400540  38.0998085  13.9715441  41.9878258
  46.0345405  21.6669484  43.9380942  45.5909259  20.8805863  43.6201846
  46.6962619  21.8548635  43.2724833  40.7932526  23.1965286  38.4641620
  41.3439951  23.0682349  37.6918614  39.9544002  23.4960175  38.1136513
  48.1326643  21.9472284  41.9662343  48.1145119  22.7681165  41.4742612
  49.0546563  21.8226359  42.1912484  44.5899697  19.4616414  42.8085852
  45.1228034  18.7004702  42.5785159  44.0613778  19.1690065  43.5510006
  47.7569392   4.5676480  38.3379493  47.4133662   5.4578121  38.2618604
  48.1248355   4.3778137  37.4749078  35.8255243  16.8910010  31.1568095
  36.6630465  17.3007018  30.9401803  36.0033511  15.9509452  31.1268289
  47.7219675  14.5585091  26.8451928  47.2066299  15.3289695  27.0840316
  47.4496984  13.8850227  27.4684990  45.3066786   9.4034792  31.9037167
  44.4508382   9.0141642  31.7242805  45.7193738   9.4826752  31.0436952
  46.8365933   6.9381135  36.3028727  46.3330728   6.9011270  35.4896532
  47.1296540   7.8473877  36.3625383  43.0808819   7.0219864  35.3094908
  43.9461815   6.8262673  34.9500798  43.1486328   6.7930216  36.2364265
  52.6953949  17.3117445  28.7805102  51.9183392  16.9728605  28.3360264
  53.3745430  17.3170069  28.1060067  47.5105978  12.4312183  28.6711710
  47.2056114  12.7458332  29.5221853  48.4636420  12.5093603  28.7139043
  45.9552410  18.5902406  30.3204664  45.4273772  17.8555166  30.0077901
  45.4539913  19.3677082  30.0744632  50.9345256  16.7851427  35.4371710
  50.2768931  17.4750688  35.5251838  51.7385655  17.1747859  35.7805696
  40.6871138   9.2522072  32.6811275  41.2614890   9.0297254  31.9484468
  41.2742120   9.3210767  33.4339876  49.7450715  15.1395799  33.4875652
  50.2582597  15.7725791  33.9897361  50.3951939  14.5396995  33.1219012
  41.0140725  11.2826533  26.7007160  40.1778037  11.6201220  27.0216435
  40.8745494  11.1475513  25.7634297  42.9893805   6.1263321  31.4086344
  42.3358218   5.8112339  30.7842959  42.9474280   5.5039062  32.1346167
  44.1005010  16.4082616  23.3239637  43.1932072  16.1771870  23.5230786
  44.5976042  15.6120236  23.5113618  47.0073089  25.1180124  26.2436323
  46.3334788  25.4211820  26.8521281  47.3938911  25.9209204  25.8941780
  46.2231546  12.6145255  35.7333992  45.3054107  12.8360202  35.5755680
  46.6391689  12.6891565  34.8745699  47.0066594  14.0136671  30.8636672
  47.7538412  14.5258068  30.5543794  47.2758183  13.6920723  31.7241066
  45.2793244  16.5095211  27.8463627  44.3704463  16.2254244  27.9436096
  45.3088328  16.9294290  26.9866934  50.5112511  20.1201801  31.6154794
  50.0574838  19.2792711  31.6719985  49.8806478  20.7563199  31.9529574
  49.4545431  11.0493787  32.8455462  48.7168187  10.5371173  33.1765704
  49.7072204  10.6094168  32.0338739  48.9545450  21.9578297  32.5504612
  49.2468425  22.5183355  31.8316978  49.4644071  22.2506858  33.3057771
  49.5557058   3.8270039  33.4397231  49.8615935   2.9667402  33.1523146
  50.2809663   4.4187659  33.2396225  35.8481414  14.2300725  31.8278829
  35.6505814  13.6370086  31.1029895  35.2928078  13.9252936  32.5454768
  43.8278138  14.1223832  33.9473422  43.8826748  13.1697668  33.8715899
  43.0169340  14.2783271  34.4314720  44.9769332  18.0503955  25.1851705
  44.5388761  17.3339814  24.7257343  45.7179772  18.2780070  24.6236797
  41.7670498  12.7400892  31.7063801  40.9538363  13.0395062  32.1128993
  42.2629492  12.3456580  32.4238283  43.9179076  22.7358649  33.6398066
  43.8755254  22.9619495  32.7106598  44.8341774  22.5022023  33.7883867
  47.3644709  13.2042716  40.5378695  47.7194097  13.4314189  41.3973161
  48.0116841  13.5361093  39.9155950  53.0942446  16.3261152  31.2428024
  52.9560345  16.5162748  30.3149213  52.7378665  17.0880535  31.6996075
  41.2584572  10.3119247  37.3225036  41.8983952  10.1708006  36.6247999
  40.4262103  10.0253761  36.9463638  53.1211826  18.3937679  36.2539295
  53.5548333  18.3012968  37.1022349  53.8343407  18.3695179  35.6159311
  42.0344876  19.6121678  33.4360028  42.8285475  19.1171998  33.2342603
  41.3236569  19.0839541  33.0727734  46.8539721  21.9939773  37.7872396
  46.9076743  22.5630709  38.5550112  45.9854502  22.1641658  37.4226433
  38.3427640  13.7564759  29.5119781  37.4125228  13.6949215  29.7289743
  38.4385112  13.2340712  28.7156422  38.2613189  10.2819572  32.0998023
  38.5220006  11.1964905  31.9907183  39.0830361   9.8144015  32.2494635
  39.7338114  11.6957329  39.2696847  40.4061168  11.4874691  38.6209496
  38.9067901  11.4979415  38.8302079  53.9827375  18.4361380  38.7872181
  54.1763266  19.3407190  39.0331456  53.8827994  17.9768799  39.6210766
  45.6363686   8.3219270  41.2862508  44.9891601   9.0209220  41.1926984
  46.4064702   8.7555414  41.6538756  49.0442484  18.5868122  44.3613061
  48.8927991  18.3578674  43.4443145  49.0347164  19.5438724  44.3744406
  45.8127821  16.1600035  39.3459328  46.7419881  16.3111195  39.1728295
  45.3918851  16.2484056  38.4907974  44.6116152  20.1850700  37.1157865
  44.4727238  19.8169484  37.9883803  43.8230749  20.6998339  36.9441823
  45.2064304  25.2859796  28.4583402  45.3816060  24.8147839  29.2729025
  44.5197092  25.9125562  28.6864663  46.1621367  19.5632302  34.5046703
  45.8271200  19.5233072  35.4004353  45.6625313  18.8977018  34.0317113
  40.1365611  14.9699932  40.0299284  39.9985409  14.2380171  40.6310823
  41.0470535  14.8808832  39.7483472  49.0980559  16.9088337  24.7783763
  48.4809730  16.1835165  24.6816815  48.6297048  17.6697697  24.4350837
  42.7647912  14.6819892  39.5182964  43.4747531  14.0413084  39.4769582
  42.7217220  14.9332786  40.4409145  50.7534691  21.6187245  42.4389543
  50.6947237  20.9346465  41.7720126  51.1554209  22.3606235  41.9870169
  41.4776846  11.6685109  41.3378603  40.9414203  11.2175848  41.9900200
  40.8893555  11.8031018  40.5949068  39.7725390  28.4349159  35.2323262
  40.0121988  29.0667683  35.9102281  38.9294586  28.0837199  35.5188621
  50.7552098  19.5826829  40.6703523  49.8678877  19.2452751  40.7929922
  51.3250649  18.8509860  40.9072288  32.4081245  15.9150921  33.9946574
  33.0952285  15.6012651  33.4067590  32.2529374  16.8192285  33.7213826
  37.2115967  10.8041117  38.4231598  37.1274156  10.1966787  37.6882008
  36.3898674  11.2950135  38.4241094  44.2853251  24.2428281  37.6364766
  44.2123423  25.0483253  38.1484071  43.8430645  24.4420247  36.8112787
  44.0743031  23.4800051  31.1467588  43.2910553  24.0221731  31.2405812
  44.7735776  23.9974031  31.5461829  47.3839681   9.2894681  33.7901793
  47.8808381   8.5364643  33.4702863  46.6126663   9.3258997  33.2245002
  55.2369439  14.9935046  35.4320084  55.2259315  15.8759762  35.0614018
  54.3686818  14.6406597  35.2374622  46.7451935  24.1415115  39.7922925
  47.4579907  24.7762580  39.7198826  46.2541964  24.2378981  38.9762927
  48.4669462  18.0466368  31.3640216  47.5325741  18.1667830  31.1944921
  48.6446130  17.1438835  31.1000226  43.9674650  11.4312064  33.5173478
  43.5972437  10.8783104  34.2054383  44.4633742  10.8270197  32.9648478
  51.8542013  13.8883687  31.8990251  52.3202465  14.7211679  31.8250553
  52.3049514  13.4228669  32.6035509  41.7963849  21.8909559  40.6128496
  42.4973308  22.5246042  40.7657890  41.3258963  22.2324290  39.8524135
  49.9218244  20.2327509  28.8976403  50.1978088  20.1184103  29.8070277
  49.0522743  19.8344993  28.8588576  49.8258676   6.2564274  35.9381152
  48.9121756   6.4868501  36.1063359  50.2551777   6.3402718  36.7895184
  49.5965134  14.4454166  38.4381046  48.9436585  14.6930074  37.7833499
  49.9745514  13.6318304  38.1043523  46.5572308  24.4813859  32.5409216
  46.7394703  23.6635515  33.0036969  47.3805294  24.6981552  32.1034106
  46.8914474  23.4082044  29.8024265  47.4202240  22.8974499  29.1894427
  47.1542693  23.0924575  30.6669798  45.6452707  15.1873977  44.9247083
  44.9693345  15.0868107  45.5949458  46.4680341  15.0313191  45.3883080
  37.3931567  21.4245914  37.5459598  37.9785003  20.6789602  37.6787502
  37.1956405  21.7349870  38.4296262  40.2470222  24.4597161  32.5622041
  39.5780597  24.9443289  32.0786081  40.1083091  24.7066382  33.4765419
  31.9849221  13.9951514  36.2664041  32.0233321  13.4615105  37.0601159
  31.4789514  13.4686719  35.6475019  44.3875490  26.4940905  39.1604699
  44.9393798  26.6572526  39.9253784  44.7281684  27.0845343  38.4884724
  39.3639984   8.8416054  39.7626584  39.4281310   9.7030885  39.3503981
  39.3007104   8.2290056  39.0298942  38.8392256  10.9139187  43.4099618
  39.4664295  10.5316264  44.0237142  37.9820175  10.6953389  43.7755310
  49.2386365  21.3202162  45.0153353  49.7826269  21.9332120  44.5208308
  48.6573210  21.8781741  45.5320366  35.6157799  12.7215616  29.3417973
  35.9111240  11.8126295  29.2885026  34.7145835  12.7003356  29.0198975
  47.5243878  24.4422880  36.1468381  47.3995017  23.6412620  35.6379327
  48.1822969  24.9369074  35.6582351  39.1452046  10.7971613  35.3245521
  38.4238632  11.4107580  35.1852995  39.9345302  11.3329378  35.2462167
  49.5878786  22.2431900  37.7747931  48.6409122  22.1237251  37.7026258
  49.9361559  21.3554398  37.8574193  41.9478359   8.1326039  41.5986173
  42.4712761   8.3788336  42.3612482  41.7290693   8.9646074  41.1789310
  37.3445640  10.4029714  29.4657298  37.0158347   9.5227093  29.2832404
  37.6985011  10.3477382  30.3533687  46.5925219  22.0384617  33.9752283
  46.4450182  21.1101324  34.1559853  47.4178713  22.0604707  33.4909359
  40.4587464  10.6902684  29.8332776  40.7983536  11.2188605  29.1111384
  40.9059584  11.0283090  30.6091342  50.1959341  22.8613175  35.0617156
  51.1205889  22.6556037  34.9241607  50.0274645  22.6129576  35.9706498
  43.1530904   9.0739734  39.2835844  42.8127725   8.2747547  39.6856524
  42.4469911   9.3741445  38.7112677  43.8047376   6.1589047  37.7363167
  44.6273446   5.6849525  37.6142057  44.0485440   6.9379530  38.2361853
  42.4455611   9.1877305  28.0326068  43.1663973   9.5658558  27.5289785
  41.8220915   9.9066182  28.1361046  46.5886734   9.8922454  28.9684401
  46.8050348  10.7747092  28.6673229  46.1080801   9.5008668  28.2390043
  41.3285955  12.8508167  35.5455145  41.1830536  13.1648470  36.4379427
  40.8511159  13.4693068  34.9926044  43.1882338   9.8410715  35.5936035
  43.1743907   8.9451809  35.2568333  43.9054766   9.8481379  36.2274321
  45.0408469  10.2748056  37.6389162  44.7826246  11.1965126  37.6373493
  44.5093509   9.8778490  38.3289626  49.9854657  23.3798843  30.4179248
  50.1591535  22.8145265  29.6653100  50.4783549  24.1799738  30.2358738
  35.8031617  15.3913512  38.4842806  35.2585085  16.1673320  38.6163081
  36.6810967  15.7384316  38.3261928  42.5919234   8.7225096  30.8623605
  42.7135145   7.7941742  31.0614492  42.3021276   8.7363782  29.9501920
  45.4610424   6.4080006  33.9990325  45.4832121   6.4719339  33.0442304
  45.8778483   5.5684515  34.1930831  55.8394049  16.1435266  32.0369547
  56.2825195  15.3942591  31.6388671  54.9620559  16.1345402  31.6543279
  50.9729830  22.6965607  27.5176146  51.6680735  23.3172300  27.7363461
  51.3152980  21.8460958  27.7928524  36.5897639  14.5183408  41.3772963
  35.8479375  14.6666043  41.9637594  36.2690383  14.7791674  40.5139713
  52.8721253  20.1465313  29.0463477  53.3972577  20.4852585  28.3212797
  52.7843606  19.2112328  28.8626611  44.5341302  24.0599386  41.1753353
  44.8428428  23.8148533  42.0476053  45.3316784  24.2646025  40.6872224
  44.5561914  26.2137296  33.4058730  44.1166904  25.7213675  34.0991587
  45.3070031  25.6710264  33.1650805  37.0354253  22.4048837  33.4083358
  37.8612273  22.1052609  33.0282001  36.6848305  21.6356459  33.8573147
  42.0035786  21.7575305  35.4781032  41.3815795  21.0946010  35.1783259
  42.6740653  21.7836437  34.7954679  35.2362858  20.3235163  34.3672292
  34.3994766  19.8957338  34.1856293  35.2086503  20.5167607  35.3043083
  42.0760313  10.2357093  45.0713538  42.1248469  11.1119216  44.6891307
  42.6182828   9.6934486  44.4985181  52.5615159  20.7798216  44.3514675
  51.7710703  20.7622355  43.8119174  52.3248514  21.3186510  45.1063711
  52.6813034  17.6290683  41.6647403  52.7311039  17.4640690  42.6062926
  52.5726957  16.7617942  41.2745284  41.5649293  20.3079228  28.9539492
  41.7137413  20.9914693  28.3006165  42.3715736  20.2884318  29.4688948
  49.9716797  13.6121611  42.9806710  50.8726659  13.4728076  42.6890708
  50.0464771  13.7776065  43.9204887  44.3059602  10.9888465  41.8259896
  43.4362911  11.2822031  41.5542485  44.5419082  11.5728910  42.5467160
  54.1831231  20.0487624  41.9089425  53.8916039  20.4117605  42.7452886
  53.5703362  19.3354632  41.7302757  55.3826913  17.6140504  34.4291995
  56.2173805  18.0530308  34.5929555  55.5186042  17.1379157  33.6100241
  52.4318419  15.1720239  40.3769483  52.9072541  15.3647885  39.5688334
  51.5083985  15.2279425  40.1312866  39.3201926  16.3344406  29.9600561
  39.0747968  15.4306736  30.1580771  39.4897840  16.3361556  29.0180039
  47.0098636   7.2068082  39.3425317  47.5280580   7.9429109  39.0171805
  46.6553768   7.5132076  40.1772076  38.5897573  12.0672764  27.4586722
  37.8966818  12.1417119  26.8026758  38.3449325  11.3033107  27.9808239
  47.2611230   3.6268365  34.8626213  47.5412984   2.9591554  35.4886640
  48.0461837   3.8197460  34.3500877  45.0644698  22.8027359  26.4251240
  44.4918665  23.4217546  25.9721711  45.6377492  23.3526720  26.9591161
  51.1320088  12.0485999  38.6097788  52.0837511  12.1484097  38.6310012
  50.9623539  11.2564267  39.1195873  49.1534468   9.1341582  38.7957189
  48.5584400   9.4146595  38.1003678  48.8684164   9.6235483  39.5673930
  48.2841958  23.0864509  27.5559822  49.2172631  23.0210071  27.7592697
  48.1965171  23.9220776  27.0974354  50.9129975  22.4030379  24.5163769
  50.8343606  22.0690243  25.4099527  51.7339642  22.8952147  24.5155242
  53.6108166  15.2692119  37.7240088  53.5784486  14.3308119  37.9099772
  54.2208790  15.3476155  36.9905913  45.4491497  14.1388172  23.7667292
  46.3950602  14.0094380  23.8355710  45.0705742  13.4002833  24.2436720
  53.7602654  12.0603162  37.7698371  53.2441703  11.2761619  37.5828300
  54.6442603  11.7321879  37.9344891  51.4213381   5.8044178  33.7294184
  51.2238203   5.4959266  34.6137516  52.0313087   6.5305816  33.8592114
  59.4284716  16.3308125  36.8646125  60.1588104  16.0693414  37.4253828
  58.8191661  15.5936847  36.9048193  57.5100013  14.4715988  37.4620576
  56.7833177  14.3371953  36.8537068  57.0947300  14.7792817  38.2677294
  45.3330189  18.1905918  45.2267949  46.2533199  18.3684517  45.4207996
  45.2979772  17.2461963  45.0747648  43.6334414  12.0638148  23.7022177
  42.7265869  11.7671261  23.7784891  43.9110395  11.7667966  22.8356463
  34.5512354  13.3844511  34.1521224  34.2315139  12.5309820  33.8595598
  34.0045783  13.5993089  34.9079191  38.3292262  16.1006952  37.8690730
  38.5478272  17.0324060  37.8878764  38.7418036  15.7414927  38.6545534
  45.2496480   6.6075038  29.8566419  44.4397208   6.2622123  30.2321665
  45.9380897   6.2982581  30.4454030  47.1787028   5.6853084  31.4790715
  47.7318067   6.1048538  32.1380738  47.4157114   4.7588833  31.5213671
  43.2020127  11.6740158  47.2593479  43.1016854  12.6234515  47.1905570
  42.9841669  11.3458397  46.3869549  34.4200614  17.0047423  36.1214345
  33.7264086  16.5901376  35.6084300  35.1673605  17.0467959  35.5247764
  50.5565835   7.7953610  30.9869379  49.9764504   8.4538414  30.6047432
  50.2901768   6.9730954  30.5756797  49.0069401   7.1958667  33.1890700
  49.5069180   7.3075202  32.3805019  49.6505009   6.8919720  33.8291508
  43.0651397  15.1037297  46.0758541  42.5818479  15.9037657  46.2822430
  43.1512336  15.1145242  45.1225985  36.3337357  16.9365677  33.9980360
  36.3108045  17.0353364  33.0462243  36.6437993  17.7830827  34.3197526
  38.9924735  18.9941832  38.1126975  39.9467988  18.9625774  38.0456906
  38.7937258  18.5332455  38.9277200  39.5824117  17.5642948  40.6797772
  40.4017006  18.0587026  40.7032609  39.8560925  16.6474916  40.6515340
  49.3390713   9.9553700  30.0425728  48.4516568  10.2403351  29.8245922
  49.7544702   9.7947463  29.1953005  52.6905249   9.9800221  33.7580067
  53.4665639  10.4696673  34.0304684  51.9653383  10.4058275  34.2151936
  55.1277808  10.6927840  34.8154008  55.7222299  10.4523576  34.1047316
  55.2004392   9.9734971  35.4427544  37.3474964  24.5361451  35.1297172
  37.2129431  23.7761852  34.5635170  36.9307026  25.2602351  34.6625961
  48.4833927  19.7198375  24.1373748  49.1869777  19.9248377  24.7531403
  47.7596575  20.2875137  24.4022831  49.3131737  15.4708236  30.2576018
  49.2566938  15.9276787  29.4183650  49.8660079  14.7098921  30.0798861
  53.1236543  11.2597968  31.0826137  52.8673477  10.8594603  31.9134345
  52.4989411  11.9741762  30.9576277  57.4348881  13.9994041  33.5897429
  56.8748439  14.0687230  34.3628991  56.8292384  13.8235026  32.8696925
  40.5044089  25.4330768  35.3415615  40.3876474  26.3776201  35.2394305
  39.6836536  25.1304330  35.7301414  50.3920624  20.1580904  26.1872208
  51.2266228  19.7262102  26.0049683  50.2304967  19.9862918  27.1149102
  50.0466516  16.6613017  27.5528547  49.9915320  16.4957289  26.6116991
  49.4212571  17.3689050  27.7090737  34.8359031  11.8981082  41.3789969
  35.4817895  11.3880036  41.8677194  34.6276182  12.6349763  41.9533395
  47.3612423  18.9661929  46.8782110  48.2303583  19.1402581  46.5168745
  46.8819175  19.7856346  46.7557839  43.3562642   6.1621126  27.1313865
  43.3441311   7.1062966  27.2882136  44.2486063   5.9791272  26.8373327
  41.5298604  26.0859030  38.5571543  42.4325850  26.1182640  38.8738038
  41.3035974  25.1559481  38.5717879  43.2852206  24.8390017  35.2181622
  42.3347837  24.8391878  35.1045994  43.5884692  24.0922751  34.7017657
  47.1714761   2.7563903  31.3859802  46.4047157   2.2022390  31.5316485
  47.5825466   2.8285772  32.2473954  39.1756522   9.0448699  45.4764983
  40.0387984   8.6885503  45.6868308  38.6021933   8.7062593  46.1640388
  59.0204899  30.6750555  36.2827384  59.6583309  30.5557302  35.5790725
  58.9025742  31.6231399  36.3415337  55.8294605  30.6277983  36.2188909
  55.4913117  30.5119048  35.3309444  56.6984374  30.2269148  36.1989915
  51.6881421  32.4813459  32.2085800  51.1246286  32.3903396  31.4402088
  51.5733816  31.6613364  32.6888293  56.3114388  31.7812835  42.1775115
  56.3003029  31.3865633  41.3055618  56.4735028  31.0478907  42.7708886
  49.2345853  33.9764651  35.0470021  50.0267145  33.6355476  34.6316320
  49.4742503  34.0859626  35.9672174  57.2680980  36.1484427  27.5200265
  56.6168960  36.7338508  27.1334279  58.0625343  36.6790622  27.5795303
  51.1936607  33.2373564  27.9187399  51.9667483  32.6902551  27.7800275
  51.5462006  34.1017814  28.1301861  53.0321649  34.5649947  41.1254299
  52.7411515  35.4695577  41.0100965  53.6678634  34.6066474  41.8398368
  53.9577856  31.9426795  37.7155658  54.5541429  31.7182818  37.0012621
  54.0152828  31.2011541  38.3181106  53.5302885  29.3966230  25.5505849
  53.7828405  28.8747752  24.7889312  52.5927444  29.2332376  25.6532533
  58.5746168  28.4002009  33.3580593  59.3609257  27.9821432  33.0071010
  58.8384872  29.3048101  33.5262241  58.7456245  33.8374859  28.0569249
  58.1102078  33.9109486  28.7690154  58.4153651  34.4268458  27.3788329
  63.9754595  28.3377242  34.2613571  64.7079767  27.7676459  34.4951401
  63.2193950  27.9498842  34.7020077  53.2499173  31.2994336  27.7530224
  53.1335432  30.6239240  28.4211309  53.3601433  30.8126710  26.9362377
  55.5930714  30.7604484  31.4576913  55.2288922  30.2335104  32.1689835
  56.4497830  30.3702953  31.2843399  55.2336201  25.7894383  26.4538262
  55.4010604  26.6574620  26.8208733  55.0433370  25.9521665  25.5299551
  57.9911535  34.2511362  38.1204092  57.6912258  35.1536401  38.0119900
  57.6462594  33.9843545  38.9725245  51.4424016  30.7025159  34.1540797
  50.5174513  30.5701373  34.3618489  51.6908429  31.4819378  34.6510739
  61.3908678  26.7693902  35.8001530  60.4825556  26.7009311  35.5060291
  61.3396274  27.2465847  36.6283355  55.2125422  28.2452041  27.4384929
  55.0925047  28.6909091  28.2770409  54.5178011  28.5937358  26.8798467
  48.8032827  30.3458433  34.9884586  48.9325208  30.5992911  35.9023998
  48.1230278  30.9386141  34.6689241  52.9732314  41.0155682  31.0875060
  52.8956344  41.9663508  31.1663541  52.3693958  40.6701555  31.7449986
  55.4649544  28.1883548  43.7436427  54.6882878  28.7477468  43.7339292
  56.1040107  28.6740331  44.2651297  60.9110488  28.7173514  28.2665263
  61.8228345  28.9500901  28.0912960  60.4020135  29.3010558  27.7040341
  53.7195916  30.9969001  43.3054394  54.4610601  31.5354045  43.0289218
  53.0132902  31.6235290  43.4625946  55.5482326  28.0770748  39.2760112
  56.3943521  28.5010162  39.4194761  55.4880964  27.4204373  39.9698676
  59.5180071  33.6999332  35.6578844  58.8888933  33.8645046  34.9554912
  59.1305733  34.1140942  36.4289808  58.2546463  24.8931550  36.5155124
  57.3930942  25.1912803  36.8071861  58.2808898  25.1101949  35.5836156
  55.0708033  33.4373740  32.9228929  55.5346378  33.7161443  32.1333552
  54.8064831  32.5357185  32.7402020  51.9632114  32.9845222  35.8608693
  52.5333471  33.4132490  35.2226177  52.5540226  32.7027807  36.5592878
  54.0076919  29.5596893  29.7318495  54.7100962  30.0117936  30.1992421
  53.6757547  28.9180712  30.3598388  52.4557280  28.1508649  44.1069704
  51.8255941  28.8324930  44.3405101  52.3493368  28.0391731  43.1622842
  47.7502253  27.8180445  35.0335628  46.9601307  28.0737974  34.5575739
  48.2413500  28.6328783  35.1387669  49.7016998  28.1825025  31.9919105
  48.9048161  28.2943719  32.5102601  49.4742590  28.5211677  31.1259995
  55.5322666  34.7069728  39.9401619  55.5967098  35.1690135  40.7759791
  54.8233589  34.0767093  40.0683929  46.0339956  28.0710936  37.4650619
  46.2847994  28.9557946  37.7308195  46.5699504  27.8915537  36.6925711
  55.2470683  36.3737835  29.8080600  55.1116358  37.2189371  30.2365448
  55.7880496  36.5757113  29.0446534  51.7338023  22.4529415  46.4694955
  51.3404968  21.8995614  47.1442599  52.5504163  22.7639994  46.8601473
  48.7000081  33.8913273  30.3808525  49.2124601  34.6856524  30.5314090
  49.3522793  33.1939564  30.3142126  50.5094965  37.0079030  32.4631278
  50.6861594  37.9296994  32.2752262  51.3051799  36.6937449  32.8925658
  54.6505984  23.8687294  44.0615212  55.3915697  24.4694447  43.9819674
  54.8823907  23.1264932  43.5033254  49.7947322  29.0543662  42.3393441
  49.6800837  28.1528919  42.6400540  48.9391840  29.3007358  41.9878258
  56.8739160  36.9961402  43.9380942  56.4303014  36.2097780  43.6201846
  57.5356373  37.1840552  43.2724833  51.6326281  38.5257204  38.4641620
  52.1833706  38.3974267  37.6918614  50.7937757  38.8252093  38.1136513
  58.9720398  37.2764202  41.9662343  58.9538873  38.0973083  41.4742612
  59.8940318  37.1518277  42.1912484  55.4293452  34.7908331  42.8085852
  55.9621789  34.0296620  42.5785159  54.9007533  34.4981983  43.5510006
  58.5963147  19.8968397  38.3379493  58.2527416  20.7870039  38.2618604
  58.9642109  19.7070055  37.4749078  46.6648997  32.2201928  31.1568095
  47.5024219  32.6298936  30.9401803  46.8427265  31.2801370  31.1268289
  58.5613430  29.8877008  26.8451928  58.0460053  30.6581613  27.0840316
  58.2890738  29.2142145  27.4684990  56.1460541  24.7326709  31.9037167
  55.2902137  24.3433560  31.7242805  56.5587492  24.8118670  31.0436952
  57.6759687  22.2673052  36.3028727  57.1724483  22.2303188  35.4896532
  57.9690294  23.1765795  36.3625383  53.9202573  22.3511782  35.3094908
  54.7855570  22.1554591  34.9500798  53.9880082  22.1222134  36.2364265
  58.3499733  27.7604101  28.6711710  58.0449868  28.0750250  29.5221853
  59.3030175  27.8385520  28.7139043  56.7946165  33.9194324  30.3204664
  56.2667526  33.1847083  30.0077901  56.2933667  34.6969000  30.0744632
  51.5264892  24.5813990  32.6811275  52.1008644  24.3589172  31.9484468
  52.1135875  24.6502685  33.4339876  51.8534479  26.6118451  26.7007160
  51.0171792  26.9493138  27.0216435  51.7139249  26.4767431  25.7634297
  53.8287560  21.4555239  31.4086344  53.1751972  21.1404256  30.7842959
  53.7868034  20.8330979  32.1346167  54.9398765  31.7374534  23.3239637
  54.0325826  31.5063788  23.5230786  55.4369797  30.9412153  23.5113618
  57.8466844  40.4472041  26.2436323  57.1728542  40.7503738  26.8521281
  58.2332666  41.2501122  25.8941780  57.0625300  27.9437173  35.7333992
  56.1447862  28.1652120  35.5755680  57.4785444  28.0183483  34.8745699
  57.8460348  29.3428588  30.8636672  58.5932167  29.8549985  30.5543794
  58.1151938  29.0212641  31.7241066  56.1186998  31.8387129  27.8463627
  55.2098217  31.5546162  27.9436096  56.1482082  32.2586208  26.9866934
  60.2939185  26.3785704  32.8455462  59.5561942  25.8663091  33.1765704
  60.5465959  25.9386086  32.0338739  59.7939205  37.2870215  32.5504612
  60.0862179  37.8475272  31.8316978  60.3037825  37.5798776  33.3057771
  60.3950812  19.1561956  33.4397231  60.7009689  18.2959320  33.1523146
  61.1203417  19.7479577  33.2396225  46.6875169  29.5592643  31.8278829
  46.4899568  28.9662004  31.1029895  46.1321833  29.2544853  32.5454768
  54.6671892  29.4515750  33.9473422  54.7220502  28.4989586  33.8715899
  53.8563094  29.6075189  34.4314720  55.8163086  33.3795873  25.1851705
  55.3782516  32.6631732  24.7257343  56.5573527  33.6071987  24.6236797
  52.6064252  28.0692809  31.7063801  51.7932118  28.3686980  32.1128993
  53.1023246  27.6748498  32.4238283  54.7572830  38.0650566  33.6398066
  54.7149009  38.2911413  32.7106598  55.6735529  37.8313941  33.7883867
  58.2038464  28.5334634  40.5378695  58.5587852  28.7606107  41.3973161
  58.8510595  28.8653011  39.9155950  52.0978327  25.6411165  37.3225036
  52.7377706  25.4999924  36.6247999  51.2655857  25.3545678  36.9463638
  52.8738631  34.9413595  33.4360028  53.6679229  34.4463915  33.2342603
  52.1630323  34.4131458  33.0727734  57.6933475  37.3231691  37.7872396
  57.7470498  37.8922627  38.5550112  56.8248257  37.4933576  37.4226433
  49.1821394  29.0856677  29.5119781  48.2518982  29.0241132  29.7289743
  49.2778866  28.5632630  28.7156422  49.1006943  25.6111490  32.0998023
  49.3613761  26.5256823  31.9907183  49.9224116  25.1435932  32.2494635
  50.5731869  27.0249247  39.2696847  51.2454922  26.8166609  38.6209496
  49.7461655  26.8271333  38.8302079  56.4757441  23.6511188  41.2862508
  55.8285356  24.3501138  41.1926984  57.2458456  24.0847332  41.6538756
  59.8836239  33.9160040  44.3613061  59.7321745  33.6870592  43.4443145
  59.8740918  34.8730641  44.3744406  56.6521575  31.4891953  39.3459328
  57.5813635  31.6403112  39.1728295  56.2312605  31.5775974  38.4907974
  55.4509907  35.5142617  37.1157865  55.3120993  35.1461402  37.9883803
  54.6624503  36.0290257  36.9441823  56.0458059  40.6151714  28.4583402
  56.2209814  40.1439757  29.2729025  55.3590847  41.2417480  28.6864663
  57.0015122  34.8924220  34.5046703  56.6664955  34.8524990  35.4004353
  56.5019068  34.2268936  34.0317113  50.9759366  30.2991850  40.0299284
  50.8379164  29.5672089  40.6310823  51.8864289  30.2100750  39.7483472
  59.9374314  32.2380254  24.7783763  59.3203484  31.5127082  24.6816815
  59.4690802  32.9989615  24.4350837  53.6041667  30.0111809  39.5182964
  54.3141285  29.3705001  39.4769582  53.5610975  30.2624704  40.4409145
  61.5928445  36.9479163  42.4389543  61.5340991  36.2638383  41.7720126
  61.9947964  37.6898153  41.9870169  52.3170601  26.9977027  41.3378603
  51.7807958  26.5467766  41.9900200  51.7287309  27.1322936  40.5949068
  50.6119144  43.7641076  35.2323262  50.8515742  44.3959601  35.9102281
  49.7688341  43.4129116  35.5188621  51.7272860  26.4565679  23.9005067
  50.8502326  26.3354479  23.5367314  52.2030613  25.6651757  23.6483956
  43.2475000  31.2442838  33.9946574  43.9346039  30.9304568  33.4067590
  43.0923128  32.1484203  33.7213826  48.0509722  26.1333035  38.4231598
  47.9667911  25.5258704  37.6882008  47.2292428  26.6242053  38.4241094
  55.1247006  39.5720199  37.6364766  55.0517177  40.3775170  38.1484071
  54.6824399  39.7712165  36.8112787  54.9136786  38.8091969  31.1467588
  54.1304307  39.3513649  31.2405812  55.6129531  39.3265949  31.5461829
  58.2233436  24.6186598  33.7901793  58.7202135  23.8656561  33.4702863
  57.4520417  24.6550915  33.2245002  57.5845689  39.4707033  39.7922925
  58.2973662  40.1054498  39.7198826  57.0935718  39.5670899  38.9762927
  59.3063216  33.3758286  31.3640216  58.3719495  33.4959748  31.1944921
  59.4839885  32.4730752  31.1000226  54.8068404  26.7603981  33.5173478
  54.4366192  26.2075022  34.2054383  55.3027497  26.1562115  32.9648478
  52.6357603  37.2201476  40.6128496  53.3367062  37.8537959  40.7657890
  52.1652718  37.5616208  39.8524135  60.6652430  21.5856192  35.9381152
  59.7515510  21.8160419  36.1063359  61.0945532  21.6694636  36.7895184
  57.3966063  39.8105777  32.5409216  57.5788457  38.9927433  33.0036969
  58.2199049  40.0273469  32.1034106  57.7308228  38.7373962  29.8024265
  58.2595995  38.2266417  29.1894427  57.9936448  38.4216492  30.6669798
  56.4846462  30.5165895  44.9247083  55.8087099  30.4160024  45.5949458
  57.3074096  30.3605109  45.3883080  48.2325321  36.7537831  37.5459598
  48.8178758  36.0081519  37.6787502  48.0350160  37.0641788  38.4296262
  51.0863976  39.7889079  32.5622041  50.4174352  40.2735206  32.0786081
  50.9476846  40.0358299  33.4765419  42.8242976  29.3243432  36.2664041
  42.8627075  28.7907022  37.0601159  42.3183269  28.7978637  35.6475019
  55.2269245  41.8232822  39.1604699  55.7787553  41.9864444  39.9253784
  55.5675438  42.4137260  38.4884724  50.2033738  24.1707972  39.7626584
  50.2675065  25.0322803  39.3503981  50.1400858  23.5581974  39.0298942
  49.6786011  26.2431105  43.4099618  50.3058049  25.8608182  44.0237142
  48.8213929  26.0245307  43.7755310  60.0780119  36.6494080  45.0153353
  60.6220023  37.2624038  44.5208308  59.4966964  37.2073658  45.5320366
  46.4551553  28.0507534  29.3417973  46.7504994  27.1418212  29.2885026
  45.5539589  28.0295273  29.0198975  58.3637632  39.7714798  36.1468381
  58.2388772  38.9704538  35.6379327  59.0216723  40.2660991  35.6582351
  49.9845800  26.1263530  35.3245521  49.2632386  26.7399498  35.1852995
  50.7739056  26.6621295  35.2462167  60.4272541  37.5723818  37.7747931
  59.4802876  37.4529169  37.7026258  60.7755314  36.6846316  37.8574193
  52.7872114  23.4617957  41.5986173  53.3106516  23.7080253  42.3612482
  52.5684447  24.2937992  41.1789310  48.1839395  25.7321631  29.4657298
  47.8552101  24.8519010  29.2832404  48.5378766  25.6769300  30.3533687
  57.4318974  37.3676534  33.9752283  57.2843936  36.4393242  34.1559853
  58.2572467  37.3896625  33.4909359  51.2981218  26.0194601  29.8332776
  51.6377291  26.5480523  29.1111384  51.7453339  26.3575007  30.6091342
  53.9924659  24.4031652  39.2835844  53.6521479  23.6039465  39.6856524
  53.2863665  24.7033363  38.7112677  54.6441131  21.4880964  37.7363167
  55.4667200  21.0141443  37.6142057  54.8879194  22.2671448  38.2361853
  53.2849365  24.5169223  28.0326068  54.0057728  24.8950476  27.5289785
  52.6614669  25.2358100  28.1361046  57.4280488  25.2214372  28.9684401
  57.6444103  26.1039010  28.6673229  56.9474555  24.8300585  28.2390043
  52.1679710  28.1800085  35.5455145  52.0224290  28.4940388  36.4379427
  51.6904913  28.7984985  34.9926044  54.0276092  25.1702633  35.5936035
  54.0137661  24.2743726  35.2568333  54.7448521  25.1773297  36.2274321
  55.8802223  25.6039973  37.6389162  55.6220001  26.5257044  37.6373493
  55.3487263  25.2070408  38.3289626  46.6425372  30.7205429  38.4842806
  46.0978840  31.4965237  38.6163081  47.5204722  31.0676234  38.3261928
  53.4312988  24.0517013  30.8623605  53.5528900  23.1233659  31.0614492
  53.1415031  24.0655699  29.9501920  56.3004179  21.7371924  33.9990325
  56.3225876  21.8011257  33.0442304  56.7172238  20.8976432  34.1930831
  47.4291394  29.8475326  41.3772963  46.6873130  29.9957961  41.9637594
  47.1084138  30.1083591  40.5139713  55.3735056  39.3891304  41.1753353
  55.6822183  39.1440451  42.0476053  56.1710538  39.5937942  40.6872224
  55.3955668  41.5429214  33.4058730  54.9560659  41.0505592  34.0991587
  56.1463785  41.0002181  33.1650805  47.8748007  37.7340754  33.4083358
  48.7006027  37.4344526  33.0282001  47.5242059  36.9648377  33.8573147
  52.8429540  37.0867223  35.4781032  52.2209550  36.4237928  35.1783259
  53.5134407  37.1128355  34.7954679  46.0756612  35.6527081  34.3672292
  45.2388521  35.2249255  34.1856293  46.0480258  35.8459524  35.3043083
  52.9154068  25.5649011  45.0713538  52.9642223  26.4411133  44.6891307
  53.4576582  25.0226404  44.4985181  52.4043047  35.6371146  28.9539492
  52.5531168  36.3206610  28.3006165  53.2109491  35.6176236  29.4688948
  55.1453356  26.3180383  41.8259896  54.2756666  26.6113949  41.5542485
  55.3812837  26.9020828  42.5467160  50.1595680  31.6636324  29.9600561
  49.9141722  30.7598654  30.1580771  50.3291595  31.6653474  29.0180039
  57.8492390  22.5360000  39.3425317  58.3674334  23.2721027  39.0171805
  57.4947523  22.8423993  40.1772076  49.4291328  27.3964681  27.4586722
  48.7360573  27.4709036  26.8026758  49.1843080  26.6325025  27.9808239
  58.1004984  18.9560283  34.8626213  58.3806738  18.2883472  35.4886640
  58.8855591  19.1489378  34.3500877  55.9038453  38.1319276  26.4251240
  55.3312420  38.7509464  25.9721711  56.4771246  38.6818638  26.9591161
  59.9928222  24.4633500  38.7957189  59.3978154  24.7438512  38.1003678
  59.7077919  24.9527401  39.5673930  59.1235713  38.4156427  27.5559822
  60.0566386  38.3501988  27.7592697  59.0358925  39.2512693  27.0974354
  61.7523729  37.7322297  24.5163769  61.6737361  37.3982161  25.4099527
  62.5733396  38.2244065  24.5155242  56.2885251  29.4680089  23.7667292
  57.2344356  29.3386297  23.8355710  55.9099496  28.7294751  24.2436720
  62.2607136  21.1336095  33.7294184  62.0631957  20.8251183  34.6137516
  62.8706841  21.8597734  33.8592114  56.1723944  33.5197835  45.2267949
  57.0926953  33.6976434  45.4207996  56.1373527  32.5753881  45.0747648
  54.4728168  27.3930066  23.7022177  53.5659624  27.0963178  23.7784891
  54.7504149  27.0959884  22.8356463  45.3906109  28.7136429  34.1521224
  45.0708893  27.8601737  33.8595598  44.8439537  28.9285007  34.9079191
  49.1686016  31.4298870  37.8690730  49.3872026  32.3615978  37.8878764
  49.5811790  31.0706844  38.6545534  56.0890234  21.9366955  29.8566419
  55.2790963  21.5914040  30.2321665  56.7774651  21.6274499  30.4454030
  58.0180782  21.0145002  31.4790715  58.5711821  21.4340456  32.1380738
  58.2550869  20.0880750  31.5213671  54.0413882  27.0032076  47.2593479
  53.9410609  27.9526433  47.1905570  53.8235424  26.6750315  46.3869549
  53.2426953  24.2517001  23.8434156  54.1046117  24.5771899  24.1029974
  53.4277297  23.4648497  23.3307222  45.2594369  32.3339340  36.1214345
  44.5657840  31.9193293  35.6084300  46.0067360  32.3759877  35.5247764
  61.3959590  23.1245527  30.9869379  60.8158259  23.7830331  30.6047432
  61.1295522  22.3022872  30.5756797  59.8463156  22.5250585  33.1890700
  60.3462934  22.6367120  32.3805019  60.4898764  22.2211638  33.8291508
  53.9045152  30.4329215  46.0758541  53.4212233  31.2329575  46.2822430
  53.9906091  30.4437159  45.1225985  47.1731111  32.2657594  33.9980360
  47.1501799  32.3645282  33.0462243  47.4831748  33.1122745  34.3197526
  49.8318489  34.3233749  38.1126975  50.7861743  34.2917692  38.0456906
  49.6331013  33.8624373  38.9277200  50.4217871  32.8934865  40.6797772
  51.2410760  33.3878944  40.7032609  50.6954679  31.9766833  40.6515340
  60.1784468  25.2845618  30.0425728  59.2910323  25.5695268  29.8245922
  60.5938457  25.1239381  29.1953005  63.5299004  25.3092139  33.7580067
  64.3059394  25.7988591  34.0304684  62.8047138  25.7350193  34.2151936
  65.9671562  26.0219758  34.8154008  66.5616053  25.7815494  34.1047316
  66.0398146  25.3026888  35.4427544  48.1868718  39.8653369  35.1297172
  48.0523186  39.1053770  34.5635170  47.7700780  40.5894269  34.6625961
  59.3227681  35.0490292  24.1373748  60.0263531  35.2540295  24.7531403
  58.5990330  35.6167054  24.4022831  60.1525491  30.8000154  30.2576018
  60.0960693  31.2568705  29.4183650  60.7053834  30.0390838  30.0798861
  63.9630297  26.5889885  31.0826137  63.7067231  26.1886521  31.9134345
  63.3383165  27.3033679  30.9576277  51.3437844  40.7622686  35.3415615
  51.2270228  41.7068118  35.2394305  50.5230290  40.4596247  35.7301414
  61.2314378  35.4872822  26.1872208  62.0659982  35.0554020  26.0049683
  61.0698721  35.3154835  27.1149102  60.8860271  31.9904935  27.5528547
  60.8309074  31.8249206  26.6116991  60.2606326  32.6980968  27.7090737
  45.6752786  27.2272999  41.3789969  46.3211649  26.7171953  41.8677194
  45.4669937  27.9641681  41.9533395  58.2006178  34.2953847  46.8782110
  59.0697337  34.4694499  46.5168745  57.7212929  35.1148264  46.7557839
  54.1956396  21.4913044  27.1313865  54.1835066  22.4354884  27.2882136
  55.0879818  21.3083189  26.8373327  52.3692358  41.4150948  38.5571543
  53.2719605  41.4474558  38.8738038  52.1429728  40.4851399  38.5717879
  54.1245960  40.1681934  35.2181622  53.1741591  40.1683796  35.1045994
  54.4278446  39.4214669  34.7017657  58.0108516  18.0855820  31.3859802
  57.2440911  17.5314307  31.5316485  58.4219221  18.1577689  32.2473954
  50.0150277  24.3740616  45.4764983  50.8781738  24.0177421  45.6868308
  49.4415687  24.0354511  46.1640388  68.1074734  51.4776345  27.5200265
  67.4562714  52.0630425  27.1334279  68.9019097  52.0082540  27.5795303
  62.0330361  48.5665482  27.9187399  62.8061237  48.0194469  27.7800275
  62.3855760  49.4309731  28.1301861  64.3696639  44.7258148  25.5505849
  64.6222160  44.2039669  24.7889312  63.4321198  44.5624294  25.6532533
  66.0729956  41.1186301  26.4538262  66.2404358  41.9866537  26.8208733
  65.8827125  41.2813583  25.5299551  66.0519177  43.5743958  27.4384929
  65.9318802  44.0201009  28.2770409  65.3571765  43.9229276  26.8798467
  63.8126069  56.3447600  31.0875060  63.7350099  57.2955425  31.1663541
  63.2087712  55.9993473  31.7449986  58.5896007  43.1472363  35.0335628
  57.7995061  43.4029892  34.5575739  59.0807254  43.9620701  35.1387669
  60.5410752  43.5116942  31.9919105  59.7441916  43.6235637  32.5102601
  60.3136345  43.8503595  31.1259995  56.8733710  43.4002854  37.4650619
  57.1241749  44.2849863  37.7308195  57.4093258  43.2207455  36.6925711
  66.0864438  51.7029753  29.8080600  65.9510113  52.5481289  30.2365448
  66.6274250  51.9049031  29.0446534  59.5393835  49.2205191  30.3808525
  60.0518356  50.0148441  30.5314090  60.1916548  48.5231482  30.3142126
  57.5042752  47.5493845  31.1568095  58.3417974  47.9590854  30.9401803
  57.6821020  46.6093288  31.1268289  62.6928234  41.9410369  26.7007160
  61.8565546  42.2785055  27.0216435  62.5533003  41.8059349  25.7634297
  65.7792519  47.0666452  23.3239637  64.8719581  46.8355705  23.5230786
  66.2763551  46.2704071  23.5113618  68.6860598  55.7763959  26.2436323
  68.0122297  56.0795656  26.8521281  69.0726420  56.5793039  25.8941780
  57.5268923  44.8884561  31.8278829  57.3293323  44.2953921  31.1029895
  56.9715587  44.5836771  32.5454768  66.6556840  48.7087790  25.1851705
  66.2176270  47.9923649  24.7257343  67.3967281  48.9363905  24.6236797
  63.4458007  43.3984727  31.7063801  62.6325872  43.6978898  32.1128993
  63.9417001  43.0040416  32.4238283  60.0215149  44.4148595  29.5119781
  59.0912737  44.3533050  29.7289743  60.1172621  43.8924547  28.7156422
  59.9400698  40.9403407  32.0998023  60.2007515  41.8548741  31.9907183
  60.7617870  40.4727850  32.2494635  66.8851813  55.9443631  28.4583402
  67.0603569  55.4731675  29.2729025  66.1984601  56.5709398  28.6864663
  61.4512899  59.0932994  35.2323262  61.6909497  59.7251518  35.9102281
  60.6082095  58.7421034  35.5188621  62.5666614  41.7857596  23.9005067
  61.6896080  41.6646397  23.5367314  63.0424367  40.9943675  23.6483956
  54.0868754  46.5734756  33.9946574  54.7739794  46.2596486  33.4067590
  53.9316883  47.4776121  33.7213826  58.8903476  41.4624953  38.4231598
  58.8061665  40.8550622  37.6882008  58.0686183  41.9533971  38.4241094
  65.7530540  54.1383887  31.1467588  64.9698062  54.6805567  31.2405812
  66.4523285  54.6557866  31.5461829  61.9257731  55.1180997  32.5622041
  61.2568106  55.6027124  32.0786081  61.7870600  55.3650217  33.4765419
  53.6636730  44.6535349  36.2664041  53.7020830  44.1198940  37.0601159
  53.1577023  44.1270555  35.6475019  66.0662999  57.1524740  39.1604699
  66.6181307  57.3156362  39.9253784  66.4069193  57.7429178  38.4884724
  61.0427493  39.4999890  39.7626584  61.1068819  40.3614721  39.3503981
  60.9794613  38.8873891  39.0298942  57.2945308  43.3799451  29.3417973
  57.5898749  42.4710130  29.2885026  56.3933344  43.3587191  29.0198975
  60.8239555  41.4555448  35.3245521  60.1026141  42.0691416  35.1852995
  61.6132811  41.9913213  35.2462167  59.0233149  41.0613549  29.4657298
  58.6945856  40.1810928  29.2832404  59.3772520  41.0061218  30.3533687
  62.1374973  41.3486519  29.8332776  62.4771045  41.8772440  29.1111384
  62.5847093  41.6866925  30.6091342  64.1243120  39.8461141  28.0326068
  64.8451482  40.2242393  27.5289785  63.5008424  40.5650017  28.1361046
  66.2128811  54.7183222  41.1753353  66.5215937  54.4732368  42.0476053
  67.0104293  54.9229860  40.6872224  66.2349423  56.8721131  33.4058730
  65.7954413  56.3797510  34.0991587  66.9857540  56.3294099  33.1650805
  58.7141762  53.0632672  33.4083358  59.5399782  52.7636444  33.0282001
  58.3635814  52.2940295  33.8573147  56.9150367  50.9818999  34.3672292
  56.0782275  50.5541173  34.1856293  56.8874012  51.1751442  35.3043083
  63.2436802  50.9663064  28.9539492  63.3924922  51.6498528  28.3006165
  64.0503245  50.9468154  29.4688948  60.9989435  46.9928241  29.9600561
  60.7535477  46.0890571  30.1580771  61.1685349  46.9945392  29.0180039
  60.2685082  42.7256599  27.4586722  59.5754327  42.8000954  26.8026758
  60.0236834  41.9616943  27.9808239  66.7432207  53.4611194  26.4251240
  66.1706174  54.0801381  25.9721711  67.3165001  54.0110556  26.9591161
  72.5917484  53.0614215  24.5163769  72.5131115  52.7274078  25.4099527
  73.4127151  53.5535983  24.5155242  67.1279006  44.7972007  23.7667292
  68.0738111  44.6678215  23.8355710  66.7493251  44.0586669  24.2436720
  65.3121923  42.7221983  23.7022177  64.4053378  42.4255096  23.7784891
  65.5897904  42.4251801  22.8356463  56.2299863  44.0428347  34.1521224
  55.9102648  43.1893655  33.8595598  55.6833292  44.2576925  34.9079191
  64.0820708  39.5808918  23.8434156  64.9439872  39.9063817  24.1029974
  64.2671052  38.7940414  23.3307222  59.0262473  55.1945286  35.1297172
  58.8916940  54.4345687  34.5635170  58.6094535  55.9186186  34.6625961
  70.1621436  50.3782210  24.1373748  70.8657286  50.5832213  24.7531403
  69.4384084  50.9458972  24.4022831  62.1831598  56.0914603  35.3415615
  62.0663983  57.0360036  35.2394305  61.3624045  55.7888165  35.7301414
  72.0708133  50.8164739  26.1872208  72.9053737  50.3845938  26.0049683
  71.9092476  50.6446753  27.1149102  56.5146540  42.5564917  41.3789969
  57.1605404  42.0463871  41.8677194  56.3063691  43.2933599  41.9533395
  65.0350151  36.8204962  27.1313865  65.0228820  37.7646801  27.2882136
  65.9273572  36.6375107  26.8373327  63.2086113  56.7442865  38.5571543
  64.1113359  56.7766476  38.8738038  62.9823483  55.8143316  38.5717879
  64.9639715  55.4973852  35.2181622  64.0135346  55.4975714  35.1045994
  65.2672201  54.7506586  34.7017657  70.9133362  64.6348486  35.0470021
  71.7054654  64.2939311  34.6316320  71.1530012  64.7443461  35.9672174
  72.8724116  63.8957400  27.9187399  73.6454992  63.3486387  27.7800275
  73.2249515  64.7601649  28.1301861  75.2090394  60.0550066  25.5505849
  75.4615914  59.5331587  24.7889312  74.2714953  59.8916211  25.6532533
  74.9286682  61.9578172  27.7530224  74.8122941  61.2823075  28.4211309
  75.0388942  61.4710546  26.9362377  70.3787590  64.5497109  30.3808525
  70.8912110  65.3440359  30.5314090  71.0310302  63.8523399  30.3142126
  72.1882474  67.6662865  32.4631278  72.3649103  68.5880830  32.2752262
  72.9839308  67.3521284  32.8925658  68.3436506  62.8785763  31.1568095
  69.1811728  63.2882771  30.9401803  68.5214774  61.9385205  31.1268289
  80.2400939  60.5460844  26.8451928  79.7247562  61.3165448  27.0840316
  79.9678247  59.8725980  27.4684990  73.5321988  57.2702286  26.7007160
  72.6959301  57.6076973  27.0216435  73.3926758  57.1351266  25.7634297
  76.6186274  62.3958369  23.3239637  75.7113335  62.1647623  23.5230786
  77.1157306  61.5995989  23.5113618  79.5254353  71.1055877  26.2436323
  78.8516051  71.4087573  26.8521281  79.9120175  71.9084957  25.8941780
  77.7974507  62.4970964  27.8463627  76.8885726  62.2129997  27.9436096
  77.8269591  62.9170043  26.9866934  68.3662678  60.2176478  31.8278829
  68.1687077  59.6245839  31.1029895  67.8109342  59.9128689  32.5454768
  77.4950595  64.0379708  25.1851705  77.0570025  63.3215567  24.7257343
  78.2361036  64.2655823  24.6236797  74.5526140  65.5997431  33.4360028
  75.3466738  65.1047751  33.2342603  73.8417832  65.0715294  33.0727734
  70.8608903  59.7440512  29.5119781  69.9306491  59.6824968  29.7289743
  70.9566375  59.2216465  28.7156422  72.2906653  74.4224912  35.2323262
  72.5303251  75.0543436  35.9102281  71.4475850  74.0712952  35.5188621
  73.4060369  57.1149514  23.9005067  72.5289835  56.9938315  23.5367314
  73.8818122  56.3235592  23.6483956  64.9262509  61.9026674  33.9946574
  65.6133548  61.5888404  33.4067590  64.7710637  62.8068038  33.7213826
  69.9112830  67.4121667  37.5459598  70.4966267  66.6665355  37.6787502
  69.7137668  67.7225624  38.4296262  64.5030485  59.9827267  36.2664041
  64.5414584  59.4490858  37.0601159  63.9970778  59.4562473  35.6475019
  68.1339062  58.7091369  29.3417973  68.4292503  57.8002048  29.2885026
  67.2327098  58.6879109  29.0198975  83.4911093  68.6841360  27.5176146
  84.1861998  69.3048053  27.7363461  83.8334243  67.8336711  27.7928524
  69.5535516  68.3924590  33.4083358  70.3793536  68.0928362  33.0282001
  69.2029568  67.6232212  33.8573147  67.7544121  66.3110916  34.3672292
  66.9176030  65.8833091  34.1856293  67.7267767  66.5043360  35.3043083
  74.0830556  66.2954981  28.9539492  74.2318677  66.9790446  28.3006165
  74.8897000  66.2760071  29.4688948  71.8383189  62.3220159  29.9600561
  71.5929231  61.4182489  30.1580771  72.0079104  62.3237309  29.0180039
  71.1078837  58.0548517  27.4586722  70.4148082  58.1292872  26.8026758
  70.8630589  57.2908860  27.9808239  77.5825962  68.7903112  26.4251240
  77.0099929  69.4093299  25.9721711  78.1558755  69.3402473  26.9591161
  83.4311238  68.3906132  24.5163769  83.3524870  68.0565996  25.4099527
  84.2520905  68.8827900  24.5155242  77.9672760  60.1263925  23.7667292
  78.9131865  59.9970133  23.8355710  77.5887005  59.3878586  24.2436720
  76.1515677  58.0513901  23.7022177  75.2447133  57.7547014  23.7784891
  76.4291658  57.7543719  22.8356463  74.9214462  54.9100836  23.8434156
  75.7833626  55.2355734  24.1029974  75.1064806  54.1232332  23.3307222
  66.9381878  62.9923176  36.1214345  66.2445349  62.5777129  35.6084300
  67.6854869  63.0343712  35.5247764  68.8518620  62.9241430  33.9980360
  68.8289308  63.0229117  33.0462243  69.1619257  63.7706580  34.3197526
  69.8656227  70.5237204  35.1297172  69.7310695  69.7637605  34.5635170
  69.4488289  71.2478104  34.6625961  81.0015190  65.7074128  24.1373748
  81.7051040  65.9124130  24.7531403  80.2777839  66.2750890  24.4022831
  82.9101887  66.1456657  26.1872208  83.7447491  65.7137855  26.0049683
  82.7486230  65.9738671  27.1149102  91.5386163  76.6626308  36.2827384
  92.1764572  76.5433055  35.5790725  91.4207005  77.6107152  36.3415337
  88.3475869  76.6153736  36.2188909  88.0094380  76.4994801  35.3309444
  89.2165637  76.2144901  36.1989915  84.2062685  78.4689213  32.2085800
  83.6427550  78.3779149  31.4402088  84.0915080  77.6489117  32.6888293
  88.8295652  77.7688588  42.1775115  88.8184293  77.3741386  41.3055618
  88.9916291  77.0354660  42.7708886  81.7527116  79.9640404  35.0470021
  82.5448408  79.6231229  34.6316320  81.9923767  80.0735379  35.9672174
  89.7862243  82.1360180  27.5200265  89.1350223  82.7214261  27.1334279
  90.5806606  82.6666375  27.5795303  83.7117870  79.2249317  27.9187399
  84.4848746  78.6778304  27.7800275  84.0643269  80.0893567  28.1301861
  85.5502913  80.5525700  41.1254299  85.2592779  81.4571330  41.0100965
  86.1859897  80.5942227  41.8398368  86.4759120  77.9302548  37.7155658
  87.0722692  77.7058571  37.0012621  86.5334091  77.1887294  38.3181106
  86.0484148  75.3841983  25.5505849  86.3009669  74.8623505  24.7889312
  85.1108707  75.2208129  25.6532533  91.0927431  74.3877762  33.3580593
  91.8790520  73.9697185  33.0071010  91.3566135  75.2923854  33.5262241
  91.2637508  79.8250612  28.0569249  90.6283341  79.8985239  28.7690154
  90.9334915  80.4144211  27.3788329  96.4935858  74.3252995  34.2613571
  97.2261030  73.7552212  34.4951401  95.7375214  73.9374595  34.7020077
  85.7680437  77.2870089  27.7530224  85.6516695  76.6114993  28.4211309
  85.8782697  76.8002463  26.9362377  88.1111978  76.7480237  31.4576913
  87.7470185  76.2210858  32.1689835  88.9679094  76.3578706  31.2843399
  87.7517465  71.7770136  26.4538262  87.9191867  72.6450373  26.8208733
  87.5614634  71.9397418  25.5299551  90.5092798  80.2387115  38.1204092
  90.2093521  81.1412154  38.0119900  90.1643858  79.9719298  38.9725245
  83.9605279  76.6900912  34.1540797  83.0355776  76.5577126  34.3618489
  84.2089693  77.4695131  34.6510739  87.7306686  74.2327794  27.4384929
  87.6106311  74.6784845  28.2770409  87.0359274  74.5813111  26.8798467
  81.3214091  76.3334186  34.9884586  81.4506472  76.5868664  35.9023998
  80.6411542  76.9261894  34.6689241  85.4913578  87.0031435  31.0875060
  85.4137608  87.9539261  31.1663541  84.8875221  86.6577308  31.7449986
  93.4291752  74.7049267  28.2665263  94.3409608  74.9376654  28.0912960
  92.9201399  75.2886311  27.7040341  86.2377180  76.9844754  43.3054394
  86.9791864  77.5229798  43.0289218  85.5314165  77.6111043  43.4625946
  91.7132520  79.1273895  41.9026555  92.1215876  78.6856305  41.1581188
  90.9909781  78.5526522  42.1560748  92.0361334  79.6875085  35.6578844
  91.4070197  79.8520799  34.9554912  91.6486996  80.1016695  36.4289808
  95.9150566  80.6229523  33.0123208  95.2301604  81.0028425  32.4620241
  95.9994415  81.2324850  33.7455156  93.1701498  78.2689482  39.6118552
  93.3818393  78.9121242  38.9352933  93.1231246  77.4351799  39.1440482
  87.5889296  79.4249493  32.9228929  88.0527642  79.7037196  32.1333552
  87.3246094  78.5232938  32.7402020  84.4813377  78.9720975  35.8608693
  85.0514734  79.4008243  35.2226177  85.0721489  78.6903560  36.5592878
  86.5258182  75.5472646  29.7318495  87.2282225  75.9993689  30.1992421
  86.1938811  74.9056465  30.3598388  94.2847326  81.1461438  37.7840909
  95.1064769  80.7441625  37.5023591  94.2809729  81.0429672  38.7357025
  82.2198261  74.1700778  31.9919105  81.4229425  74.2819472  32.5102601
  81.9923854  74.5087430  31.1259995  88.0503929  80.6945481  39.9401619
  88.1148362  81.1565888  40.7759791  87.3414853  80.0642846  40.0683929
 102.3753319  77.4900186  34.1325880 101.6217027  76.9207584  33.9769885
 102.5100860  77.4562851  35.0796515  87.7651947  82.3613588  29.8080600
  87.6297622  83.2065124  30.2365448  88.3061759  82.5632866  29.0446534
  81.2181344  79.8789026  30.3808525  81.7305865  80.6732277  30.5314090
  81.8704057  79.1815317  30.3142126  83.0276229  82.9954783  32.4631278
  83.2042857  83.9172747  32.2752262  83.8233062  82.6813202  32.8925658
  89.3920423  82.9837155  43.9380942  88.9484277  82.1973534  43.6201846
  90.0537637  83.1716305  43.2724833  84.1507544  84.5132957  38.4641620
  84.7014969  84.3850020  37.6918614  83.3119020  84.8127846  38.1136513
  91.4901661  83.2639955  41.9662343  91.4720137  84.0848836  41.4742612
  92.4121581  83.1394030  42.1912484  87.9474715  80.7784084  42.8085852
  88.4803052  80.0172373  42.5785159  87.4188796  80.4857736  43.5510006
  79.1830261  78.2077681  31.1568095  80.0205483  78.6174689  30.9401803
  79.3608529  77.2677123  31.1268289  91.0794693  75.8752761  26.8451928
  90.5641316  76.6457366  27.0840316  90.8072001  75.2017898  27.4684990
  96.0528967  78.6285116  28.7805102  95.2758410  78.2896276  28.3360264
  96.7320448  78.6337739  28.1060067  90.8680996  73.7479854  28.6711710
  90.5631132  74.0626003  29.5221853  91.8211438  73.8261273  28.7139043
  89.3127428  79.9070077  30.3204664  88.7848790  79.1722836  30.0077901
  88.8114931  80.6844753  30.0744632  94.2920274  78.1019097  35.4371710
  93.6343949  78.7918359  35.5251838  95.0960673  78.4915529  35.7805696
  93.1025733  76.4563470  33.4875652  93.6157615  77.0893462  33.9897361
  93.7526957  75.8564666  33.1219012  84.3715743  72.5994204  26.7007160
  83.5353055  72.9368891  27.0216435  84.2320512  72.4643184  25.7634297
  87.4580028  77.7250287  23.3239637  86.5507090  77.4939541  23.5230786
  87.9551060  76.9287906  23.5113618  90.3648107  86.4347794  26.2436323
  89.6909806  86.7379491  26.8521281  90.7513929  87.2376875  25.8941780
  89.5806564  73.9312926  35.7333992  88.6629125  74.1527873  35.5755680
  89.9966707  74.0059236  34.8745699  90.3641611  75.3304341  30.8636672
  91.1113430  75.8425738  30.5543794  90.6333201  75.0088394  31.7241066
  88.6368262  77.8262882  27.8463627  87.7279481  77.5421915  27.9436096
  88.6663345  78.2461961  26.9866934  93.8687529  81.4369471  31.6154794
  93.4149856  80.5960381  31.6719985  93.2381496  82.0730870  31.9529574
  92.3120468  83.2745968  32.5504612  92.6043443  83.8351025  31.8316978
  92.8219089  83.5674529  33.3057771  79.2056432  75.5468396  31.8278829
  79.0080832  74.9537757  31.1029895  78.6503096  75.2420606  32.5454768
  87.1853156  75.4391503  33.9473422  87.2401765  74.4865339  33.8715899
  86.3744358  75.5950942  34.4314720  88.3344349  79.3671626  25.1851705
  87.8963779  78.6507485  24.7257343  89.0754790  79.5947740  24.6236797
  85.1245516  74.0568562  31.7063801  84.3113381  74.3562733  32.1128993
  85.6204510  73.6624251  32.4238283  87.2754094  84.0526319  33.6398066
  87.2330272  84.2787166  32.7106598  88.1916792  83.8189694  33.7883867
  96.4517464  77.6428823  31.2428024  96.3135363  77.8330419  30.3149213
  96.0953683  78.4048206  31.6996075  96.4786844  79.7105350  36.2539295
  96.9123351  79.6180639  37.1022349  97.1918425  79.6862850  35.6159311
  85.3919894  80.9289348  33.4360028  86.1860493  80.4339668  33.2342603
  84.6811587  80.4007211  33.0727734  90.2114739  83.3107444  37.7872396
  90.2651761  83.8798380  38.5550112  89.3429520  83.4809329  37.4226433
  81.7002658  75.0732430  29.5119781  80.7700246  75.0116885  29.7289743
  81.7960130  74.5508383  28.7156422  97.3402393  79.7529050  38.7872181
  97.5338284  80.6574861  39.0331456  97.2403012  79.2936469  39.6210766
  92.4017502  79.9035793  44.3613061  92.2503009  79.6746345  43.4443145
  92.3922182  80.8606395  44.3744406  89.1702839  77.4767706  39.3459328
  90.0994899  77.6278865  39.1728295  88.7493869  77.5651727  38.4907974
  87.9691170  81.5018370  37.1157865  87.8302256  81.1337155  37.9883803
  87.1805767  82.0166010  36.9441823  88.5639322  86.6027467  28.4583402
  88.7391078  86.1315510  29.2729025  87.8772110  87.2293233  28.6864663
  89.5196385  80.8799973  34.5046703  89.1846218  80.8400743  35.4004353
  89.0200331  80.2144689  34.0317113  83.4940629  76.2867603  40.0299284
  83.3560427  75.5547842  40.6310823  84.4045553  76.1976503  39.7483472
  92.4555577  78.2256007  24.7783763  91.8384748  77.5002835  24.6816815
  91.9872066  78.9865368  24.4350837  86.1222930  75.9987562  39.5182964
  86.8322549  75.3580755  39.4769582  86.0792238  76.2500457  40.4409145
  94.1109709  82.9354916  42.4389543  94.0522255  82.2514136  41.7720126
  94.5129227  83.6773906  41.9870169  83.1300408  89.7516829  35.2323262
  83.3697006  90.3835354  35.9102281  82.2869604  89.4004870  35.5188621
  84.2454123  72.4441432  23.9005067  83.3683589  72.3230232  23.5367314
  84.7211876  71.6527510  23.6483956  94.1127116  80.8994500  40.6703523
  93.2253895  80.5620421  40.7929922  94.6825667  80.1677531  40.9072288
  75.7656263  77.2318591  33.9946574  76.4527303  76.9180321  33.4067590
  75.6104392  78.1359956  33.7213826  87.6428269  85.5595952  37.6364766
  87.5698441  86.3650923  38.1484071  87.2005663  85.7587918  36.8112787
  87.4318049  84.7967722  31.1467588  86.6485571  85.3389402  31.2405812
  88.1310794  85.3141702  31.5461829  98.5944457  76.3102717  35.4320084
  98.5834333  77.1927432  35.0614018  97.7261836  75.9574268  35.2374622
  90.1026953  85.4582786  39.7922925  90.8154925  86.0930251  39.7198826
  89.6116982  85.5546652  38.9762927  91.8244480  79.3634039  31.3640216
  90.8900759  79.4835501  31.1944921  92.0021148  78.4606505  31.1000226
  87.3249668  72.7479734  33.5173478  86.9547455  72.1950775  34.2054383
  87.8208760  72.1437868  32.9648478  95.2117031  75.2051358  31.8990251
  95.6777483  76.0379350  31.8250553  95.6624532  74.7396339  32.6035509
  85.1538866  83.2077229  40.6128496  85.8548326  83.8413712  40.7657890
  84.6833981  83.5491961  39.8524135  93.2793262  81.5495179  28.8976403
  93.5553106  81.4351774  29.8070277  92.4097761  81.1512664  28.8588576
  89.9147326  85.7981530  32.5409216  90.0969721  84.9803186  33.0036969
  90.7380312  86.0149222  32.1034106  90.2489492  84.7249715  29.8024265
  90.7777258  84.2142170  29.1894427  90.5117711  84.4092245  30.6669798
  89.0027725  76.5041648  44.9247083  88.3268362  76.4035777  45.5949458
  89.8255359  76.3480862  45.3883080  80.7506585  82.7413584  37.5459598
  81.3360021  81.9957272  37.6787502  80.5531423  83.0517541  38.4296262
  83.6045240  85.7764832  32.5622041  82.9355615  86.2610959  32.0786081
  83.4658109  86.0234052  33.4765419  75.3424239  75.3119185  36.2664041
  75.3808339  74.7782775  37.0601159  74.8364532  74.7854390  35.6475019
  87.7450508  87.8108575  39.1604699  88.2968816  87.9740197  39.9253784
  88.0856702  88.4013013  38.4884724  92.5961383  82.6369833  45.0153353
  93.1401287  83.2499791  44.5208308  92.0148228  83.1949411  45.5320366
  78.9732817  74.0383287  29.3417973  79.2686258  73.1293965  29.2885026
  78.0720853  74.0171026  29.0198975  90.8818896  85.7590551  36.1468381
  90.7570035  84.9580291  35.6379327  91.5397987  86.2536744  35.6582351
  92.9453804  83.5599571  37.7747931  91.9984140  83.4404922  37.7026258
  93.2936577  82.6722069  37.8574193  80.7020658  71.7197384  29.4657298
  80.3733365  70.8394763  29.2832404  81.0560029  71.6645053  30.3533687
  89.9500237  83.3552287  33.9752283  89.8025200  82.4268995  34.1559853
  90.7753731  83.3772378  33.4909359  93.5534359  84.1780846  35.0617156
  94.4780907  83.9723707  34.9241607  93.3849663  83.9297247  35.9706498
  85.8030629  70.5044976  28.0326068  86.5238991  70.8826229  27.5289785
  85.1795933  71.2233853  28.1361046  84.6860973  74.1675838  35.5455145
  84.5405554  74.4816141  36.4379427  84.2086177  74.7860738  34.9926044
  93.3429675  84.6966513  30.4179248  93.5166553  84.1312936  29.6653100
  93.8358567  85.4967408  30.2358738  79.1606635  76.7081182  38.4842806
  78.6160103  77.4840990  38.6163081  80.0385985  77.0551987  38.3261928
  99.1969067  77.4602936  32.0369547  99.6400213  76.7110262  31.6388671
  98.3195577  77.4513073  31.6543279  94.3304848  84.0133278  27.5176146
  95.0255752  84.6339970  27.7363461  94.6727998  83.1628629  27.7928524
  96.2296271  81.4632983  29.0463477  96.7547595  81.8020256  28.3212797
  96.1418624  80.5279999  28.8626611  87.8916320  85.3767057  41.1753353
  88.2003446  85.1316204  42.0476053  88.6891802  85.5813695  40.6872224
  87.9136932  87.5304967  33.4058730  87.4741922  87.0381345  34.0991587
  88.6645049  86.9877934  33.1650805  80.3929271  83.7216507  33.4083358
  81.2187291  83.4220279  33.0282001  80.0423323  82.9524130  33.8573147
  85.3610804  83.0742976  35.4781032  84.7390813  82.4113681  35.1783259
  86.0315671  83.1004108  34.7954679  78.5937876  81.6402834  34.3672292
  77.7569784  81.2125008  34.1856293  78.5661521  81.8335277  35.3043083
  95.9190177  82.0965887  44.3514675  95.1285721  82.0790026  43.8119174
  95.6823532  82.6354181  45.1063711  96.0388052  78.9458353  41.6647403
  96.0886057  78.7808361  42.6062926  95.9301975  78.0785612  41.2745284
  84.9224311  81.6246899  28.9539492  85.0712431  82.3082363  28.3006165
  85.7290754  81.6051989  29.4688948  97.5406249  81.3655295  41.9089425
  97.2491057  81.7285275  42.7452886  96.9278380  80.6522303  41.7302757
  98.7401931  78.9308175  34.4291995  99.5748823  79.3697979  34.5929555
  98.8761060  78.4546828  33.6100241  95.7893437  76.4887909  40.3769483
  96.2647559  76.6815556  39.5688334  94.8659003  76.5447095  40.1312866
  82.6776944  77.6512077  29.9600561  82.4322986  76.7474407  30.1580771
  82.8472858  77.6529227  29.0180039  81.9472591  73.3840434  27.4586722
  81.2541836  73.4584789  26.8026758  81.7024343  72.6200778  27.9808239
  88.4219716  84.1195029  26.4251240  87.8493683  84.7385217  25.9721711
  88.9952510  84.6694391  26.9591161  91.6416976  84.4032180  27.5559822
  92.5747649  84.3377741  27.7592697  91.5540189  85.2388446  27.0974354
  94.2704993  83.7198050  24.5163769  94.1918624  83.3857914  25.4099527
  95.0914660  84.2119818  24.5155242  96.9683184  76.5859789  37.7240088
  96.9359504  75.6475790  37.9099772  97.5783808  76.6643826  36.9905913
  88.8066515  75.4555842  23.7667292  89.7525620  75.3262050  23.8355710
  88.4280760  74.7170504  24.2436720 102.7859734  77.6475796  36.8646125
 103.5163122  77.3861084  37.4253828 102.1766679  76.9104518  36.9048193
 100.8675031  75.7883659  37.4620576 100.1408194  75.6539624  36.8537068
 100.4522318  76.0960487  38.2677294  88.6905207  79.5073588  45.2267949
  89.6108217  79.6852187  45.4207996  88.6554790  78.5629634  45.0747648
  86.9909432  73.3805819  23.7022177  86.0840887  73.0838931  23.7784891
  87.2685413  73.0835637  22.8356463  77.9087372  74.7012182  34.1521224
  77.5890157  73.8477490  33.8595598  77.3620801  74.9160760  34.9079191
  81.6867280  77.4174623  37.8690730  81.9053290  78.3491731  37.8878764
  82.0993054  77.0582597  38.6545534  85.7608217  70.2392754  23.8434156
  86.6227381  70.5647652  24.1029974  85.9458561  69.4524250  23.3307222
  77.7775632  78.3215094  36.1214345  77.0839104  77.9069046  35.6084300
  78.5248623  78.3635630  35.5247764  79.6912375  78.2533347  33.9980360
  79.6683063  78.3521035  33.0462243  80.0013011  79.0998498  34.3197526
  82.3499753  80.3109502  38.1126975  83.3043006  80.2793445  38.0456906
  82.1512276  79.8500126  38.9277200  82.9399135  78.8810618  40.6797772
  83.7592024  79.3754697  40.7032609  83.2135943  77.9642587  40.6515340
  96.0480267  71.2967892  33.7580067  96.8240657  71.7864344  34.0304684
  95.3228401  71.7225946  34.2151936  98.4852826  72.0095511  34.8154008
  99.0797317  71.7691247  34.1047316  98.5579410  71.2902641  35.4427544
  80.7049982  85.8529122  35.1297172  80.5704449  85.0929523  34.5635170
  80.2882044  86.5770022  34.6625961  91.8408945  81.0366045  24.1373748
  92.5444795  81.2416048  24.7531403  91.1171593  81.6042807  24.4022831
  92.6706755  76.7875907  30.2576018  92.6141956  77.2444458  29.4183650
  93.2235097  76.0266591  30.0798861  96.4811561  72.5765638  31.0826137
  96.2248495  72.1762274  31.9134345  95.8564429  73.2909432  30.9576277
 100.7923899  75.3161712  33.5897429 100.2323457  75.3854901  34.3628991
 100.1867402  75.1402696  32.8696925  83.8619107  86.7498439  35.3415615
  83.7451492  87.6943871  35.2394305  83.0411554  86.4472000  35.7301414
  93.7495642  81.4748575  26.1872208  94.5841246  81.0429773  26.0049683
  93.5879985  81.3030588  27.1149102  93.4041534  77.9780688  27.5528547
  93.3490338  77.8124959  26.6116991  92.7787589  78.6856721  27.7090737
  90.7187441  80.2829600  46.8782110  91.5878601  80.4570252  46.5168745
  90.2394193  81.1024017  46.7557839  86.7137660  67.4788797  27.1313865
  86.7016329  68.4230637  27.2882136  87.6061081  67.2958942  26.8373327
  84.8873622  87.4026701  38.5571543  85.7900868  87.4350311  38.8738038
  84.6610992  86.4727152  38.5717879  86.6427224  86.1557687  35.2181622
  85.6922855  86.1559549  35.1045994  86.9459710  85.4090422  34.7017657
 102.3779917  91.9918226  36.2827384 103.0158327  91.8724973  35.5790725
 102.2600760  92.9399070  36.3415337  99.1869623  91.9445654  36.2188909
  98.8488135  91.8286718  35.3309444 100.0559391  91.5436819  36.1989915
  95.0456439  93.7981130  32.2085800  94.4821304  93.7071067  31.4402088
  94.9308834  92.9781035  32.6888293  99.6689406  93.0980506  42.1775115
  99.6578047  92.7033304  41.3055618  99.8310046  92.3646578  42.7708886
  92.5920871  95.2932322  35.0470021  93.3842163  94.9523146  34.6316320
  92.8317521  95.4027297  35.9672174 100.6255998  97.4652098  27.5200265
  99.9743977  98.0506178  27.1334279 101.4200361  97.9958293  27.5795303
  94.5511625  94.5541235  27.9187399  95.3242501  94.0070222  27.7800275
  94.9037024  95.4185484  28.1301861  96.3896667  95.8817617  41.1254299
  96.0986533  96.7863248  41.0100965  97.0253652  95.9234145  41.8398368
  97.3152874  93.2594466  37.7155658  97.9116447  93.0350488  37.0012621
  97.3727846  92.5179211  38.3181106  96.8877903  90.7133901  25.5505849
  97.1403423  90.1915422  24.7889312  95.9502462  90.5500047  25.6532533
 101.9321186  89.7169680  33.3580593 102.7184275  89.2989103  33.0071010
 102.1959890  90.6215772  33.5262241 102.1031263  95.1542530  28.0569249
 101.4677096  95.2277156  28.7690154 101.7728669  95.7436129  27.3788329
 107.3329613  89.6544913  34.2613571 108.0654785  89.0844130  34.4951401
 106.5768968  89.2666513  34.7020077  96.6074191  92.6162007  27.7530224
  96.4910450  91.9406910  28.4211309  96.7176451  92.1294381  26.9362377
  98.9505732  92.0772154  31.4576913  98.5863940  91.5502775  32.1689835
  99.8072848  91.6870623  31.2843399 104.8555033  83.3666487  38.7208180
 104.5238358  84.2361898  38.4969395 104.2600646  83.0502771  39.4002210
  98.5911219  87.1062054  26.4538262  98.7585622  87.9742290  26.8208733
  98.4008388  87.2689336  25.5299551 101.3486553  95.5679033  38.1204092
 101.0487276  96.4704072  38.0119900 101.0037612  95.3011216  38.9725245
  94.7999034  92.0192830  34.1540797  93.8749530  91.8869044  34.3618489
  95.0483447  92.7987049  34.6510739 104.7483696  88.0861573  35.8001530
 103.8400574  88.0176981  35.5060291 104.6971292  88.5633518  36.6283355
  98.5700440  89.5619711  27.4384929  98.4500065  90.0076762  28.2770409
  97.8753029  89.9105029  26.8798467  92.1607845  91.6626103  34.9884586
  92.2900226  91.9160582  35.9023998  91.4805296  92.2553811  34.6689241
  96.3307332 102.3323353  31.0875060  96.2531362 103.2831178  31.1663541
  95.7268976 101.9869226  31.7449986  98.8224562  89.5051219  43.7436427
  98.0457896  90.0645139  43.7339292  99.4615125  89.9908002  44.2651297
 106.6145343  86.2878011  37.5779404 105.9719723  86.5810545  36.9319198
 106.1100271  86.1730932  38.3832600 104.2685506  90.0341185  28.2665263
 105.1803362  90.2668571  28.0912960 103.7595153  90.6178229  27.7040341
  97.0770934  92.3136672  43.3054394  97.8185619  92.8521716  43.0289218
  96.3707920  92.9402961  43.4625946 102.5526274  94.4565812  41.9026555
 102.9609630  94.0148223  41.1581188 101.8303536  93.8818440  42.1560748
  98.9057344  89.3938419  39.2760112  99.7518539  89.8177833  39.4194761
  98.8455982  88.7372044  39.9698676 102.8755089  95.0167003  35.6578844
 102.2463951  95.1812717  34.9554912 102.4880751  95.4308613  36.4289808
 106.7544321  95.9521441  33.0123208 106.0695359  96.3320342  32.4620241
 106.8388170  96.5616768  33.7455156 102.0556789  87.0542788  40.9341286
 101.8117721  87.8084848  40.3975562 102.3316720  87.4328135  41.7688533
 104.0095252  93.5981400  39.6118552 104.2212147  94.2413160  38.9352933
 103.9625000  92.7643716  39.1440482 101.6121481  86.2099221  36.5155124
 100.7505960  86.5080474  36.8071861 101.6383916  86.4269619  35.5836156
  98.4283051  94.7541411  32.9228929  98.8921396  95.0329114  32.1333552
  98.1639849  93.8524856  32.7402020  95.3207132  94.3012893  35.8608693
  95.8908489  94.7300161  35.2226177  95.9115243  94.0195477  36.5592878
  97.3651937  90.8764564  29.7318495  98.0675980  91.3285607  30.1992421
  97.0332565  90.2348382  30.3598388  95.8132298  89.4676320  44.1069704
  95.1830959  90.1492601  44.3405101  95.7068386  89.3559402  43.1622842
  91.1077271  89.1348116  35.0335628  90.3176325  89.3905645  34.5575739
  91.5988518  89.9496454  35.1387669 105.1241080  96.4753355  37.7840909
 105.9458524  96.0733543  37.5023591 105.1203483  96.3721590  38.7357025
  93.0592016  89.4992695  31.9919105  92.2623179  89.6111390  32.5102601
  92.8317608  89.8379348  31.1259995  98.8897684  96.0237399  39.9401619
  98.9542116  96.4857806  40.7759791  98.1808607  95.3934764  40.0683929
  89.3914974  89.3878607  37.4650619  89.6423012  90.2725617  37.7308195
  89.9274522  89.2083208  36.6925711 113.2147073  92.8192104  34.1325880
 112.4610782  92.2499502  33.9769885 113.3494614  92.7854768  35.0796515
  98.6045701  97.6905506  29.8080600  98.4691376  98.5357042  30.2365448
  99.1455514  97.8924784  29.0446534  95.0913041  83.7697086  46.4694955
  94.6979986  83.2163285  47.1442599  95.9079181  84.0807664  46.8601473
  92.0575099  95.2080944  30.3808525  92.5699619  96.0024194  30.5314090
  92.7097811  94.5107235  30.3142126  93.8669983  98.3246700  32.4631278
  94.0436612  99.2464665  32.2752262  94.6626817  98.0105120  32.8925658
  98.0081002  85.1854965  44.0615212  98.7490715  85.7862118  43.9819674
  98.2398925  84.4432603  43.5033254  93.1522340  90.3711332  42.3393441
  93.0375855  89.4696590  42.6400540  92.2966858  90.6175029  41.9878258
 100.2314178  98.3129073  43.9380942  99.7878032  97.5265451  43.6201846
 100.8931391  98.5008223  43.2724833  94.9901299  99.8424874  38.4641620
  95.5408724  99.7141938  37.6918614  94.1512775 100.1419763  38.1136513
 102.3295416  98.5931873  41.9662343 102.3113891  99.4140754  41.4742612
 103.2515336  98.4685948  42.1912484  98.7868470  96.1076002  42.8085852
  99.3196807  95.3464290  42.5785159  98.2582551  95.8149654  43.5510006
 101.9538165  81.2136068  38.3379493 101.6102434  82.1037710  38.2618604
 102.3217127  81.0237726  37.4749078  90.0224015  93.5369598  31.1568095
  90.8599237  93.9466607  30.9401803  90.2002283  92.5969041  31.1268289
 101.9188448  91.2044679  26.8451928 101.4035071  91.9749284  27.0840316
 101.6465756  90.5309815  27.4684990  99.5035559  86.0494380  31.9037167
  98.6477155  85.6601230  31.7242805  99.9162510  86.1286341  31.0436952
 101.0334705  83.5840723  36.3028727 100.5299501  83.5470858  35.4896532
 101.3265312  84.4933466  36.3625383  97.2777591  83.6679453  35.3094908
  98.1430588  83.4722262  34.9500798  97.3455100  83.4389805  36.2364265
 106.8922722  93.9577034  28.7805102 106.1152164  93.6188193  28.3360264
 107.5714203  93.9629657  28.1060067 101.7074751  89.0771771  28.6711710
 101.4024886  89.3917920  29.5221853 102.6605193  89.1553191  28.7139043
 100.1521183  95.2361995  30.3204664  99.6242544  94.5014754  30.0077901
  99.6508685  96.0136671  30.0744632 105.1314029  93.4311015  35.4371710
 104.4737703  94.1210276  35.5251838 105.9354428  93.8207447  35.7805696
  94.8839910  85.8981661  32.6811275  95.4583662  85.6756842  31.9484468
  95.4710893  85.9670355  33.4339876 103.9419487  91.7855388  33.4875652
 104.4551369  92.4185380  33.9897361 104.5920711  91.1856583  33.1219012
  95.2109497  87.9286122  26.7007160  94.3746810  88.2660808  27.0216435
  95.0714267  87.7935102  25.7634297  97.1862578  82.7722910  31.4086344
  96.5326990  82.4571927  30.7842959  97.1443052  82.1498650  32.1346167
  98.2973783  93.0542205  23.3239637  97.3900844  92.8231458  23.5230786
  98.7944815  92.2579824  23.5113618 100.4200318  89.2604843  35.7333992
  99.5022880  89.4819790  35.5755680 100.8360462  89.3351154  34.8745699
 101.2035366  90.6596259  30.8636672 101.9507185  91.1717656  30.5543794
 101.4726956  90.3380312  31.7241066  99.4762016  93.1554800  27.8463627
  98.5673235  92.8713832  27.9436096  99.5057100  93.5753878  26.9866934
 104.7081284  96.7661389  31.6154794 104.2543611  95.9252299  31.6719985
 104.0775250  97.4022788  31.9529574 103.6514203  87.6953375  32.8455462
 102.9136960  87.1830761  33.1765704 103.9040977  87.2553757  32.0338739
 103.1514223  98.6037886  32.5504612 103.4437197  99.1642943  31.8316978
 103.6612843  98.8966447  33.3057771 103.7525830  80.4729627  33.4397231
 104.0584707  79.6126991  33.1523146 104.4778435  81.0647247  33.2396225
  90.0450187  90.8760314  31.8278829  89.8474586  90.2829674  31.1029895
  89.4896851  90.5712524  32.5454768  98.0246910  90.7683420  33.9473422
  98.0795520  89.8157257  33.8715899  97.2138112  90.9242859  34.4314720
  99.1738104  94.6963543  25.1851705  98.7357534  93.9799402  24.7257343
  99.9148545  94.9239658  24.6236797  95.9639270  89.3860480  31.7063801
  95.1507136  89.6854651  32.1128993  96.4598264  88.9916169  32.4238283
  98.1147848  99.3818237  33.6398066  98.0724027  99.6079083  32.7106598
  99.0310547  99.1481612  33.7883867 101.5613482  89.8502304  40.5378695
 101.9162870  90.0773778  41.3973161 102.2085613  90.1820681  39.9155950
 107.2911219  92.9720740  31.2428024 107.1529117  93.1622336  30.3149213
 106.9347438  93.7340123  31.6996075  95.4553345  86.9578836  37.3225036
  96.0952724  86.8167595  36.6247999  94.6230875  86.6713349  36.9463638
 107.3180598  95.0397267  36.2539295 107.7517105  94.9472556  37.1022349
 108.0312179  95.0154768  35.6159311  96.2313649  96.2581266  33.4360028
  97.0254247  95.7631586  33.2342603  95.5205341  95.7299129  33.0727734
 101.0508493  98.6399361  37.7872396 101.1045516  99.2090298  38.5550112
 100.1823275  98.8101247  37.4226433  92.5396412  90.4024348  29.5119781
  91.6094000  90.3408803  29.7289743  92.6353884  89.8800300  28.7156422
  92.4581961  86.9279161  32.0998023  92.7188779  87.8424494  31.9907183
  93.2799134  86.4603603  32.2494635  93.9306887  88.3416918  39.2696847
  94.6029940  88.1334280  38.6209496  93.1036673  88.1439004  38.8302079
 108.1796148  95.0820968  38.7872181 108.3732038  95.9866779  39.0331456
 108.0796766  94.6228387  39.6210766  99.8332459  84.9678859  41.2862508
  99.1860374  85.6668808  41.1926984 100.6033474  85.4015003  41.6538756
 103.2411257  95.2327711  44.3613061 103.0896763  95.0038262  43.4443145
 103.2315936  96.1898312  44.3744406 100.0096593  92.8059624  39.3459328
 100.9388653  92.9570783  39.1728295  99.5887623  92.8943644  38.4907974
  98.8084925  96.8310288  37.1157865  98.6696010  96.4629072  37.9883803
  98.0199521  97.3457927  36.9441823  99.4033077 101.9319384  28.4583402
  99.5784832 101.4607428  29.2729025  98.7165865 102.5585151  28.6864663
 100.3590140  96.2091891  34.5046703 100.0239973  96.1692661  35.4004353
  99.8594086  95.5436607  34.0317113  94.3334384  91.6159521  40.0299284
  94.1954182  90.8839759  40.6310823  95.2439307  91.5268421  39.7483472
 103.2949332  93.5547925  24.7783763 102.6778502  92.8294753  24.6816815
 102.8265820  94.3157285  24.4350837  96.9616685  91.3279480  39.5182964
  97.6716303  90.6872672  39.4769582  96.9185993  91.5792375  40.4409145
 104.9503463  98.2646833  42.4389543 104.8916009  97.5806053  41.7720126
 105.3522982  99.0065823  41.9870169  95.6745619  88.3144698  41.3378603
  95.1382976  87.8635436  41.9900200  95.0862327  88.4490607  40.5949068
  93.9694162 105.0808747  35.2323262  94.2090760 105.7127271  35.9102281
  93.1263359 104.7296787  35.5188621  95.0847877  87.7733349  23.9005067
  94.2077344  87.6522150  23.5367314  95.5605631  86.9819428  23.6483956
 104.9520871  96.2286417  40.6703523 104.0647649  95.8912339  40.7929922
 105.5219422  95.4969448  40.9072288  86.6050018  92.5610509  33.9946574
  87.2921057  92.2472239  33.4067590  86.4498146  93.4651874  33.7213826
  91.4084740  87.4500706  38.4231598  91.3242928  86.8426375  37.6882008
  90.5867446  87.9409724  38.4241094  98.4822024 100.8887870  37.6364766
  98.4092195 101.6942841  38.1484071  98.0399417 101.0879835  36.8112787
  98.2711804 100.1259640  31.1467588  97.4879325 100.6681320  31.2405812
  98.9704549 100.6433619  31.5461829 101.5808454  85.9354269  33.7901793
 102.0777153  85.1824231  33.4702863 100.8095435  85.9718586  33.2245002
 109.4338211  91.6394635  35.4320084 109.4228087  92.5219350  35.0614018
 108.5655590  91.2866185  35.2374622 100.9420707 100.7874704  39.7922925
 101.6548680 101.4222168  39.7198826 100.4510736 100.8838570  38.9762927
 102.6638234  94.6925956  31.3640216 101.7294513  94.8127419  31.1944921
 102.8414903  93.7898423  31.1000226  98.1643422  88.0771652  33.5173478
  97.7941210  87.5242692  34.2054383  98.6602515  87.4729786  32.9648478
 106.0510786  90.5343276  31.8990251 106.5171238  91.3671267  31.8250553
 106.5018286  90.0688257  32.6035509  95.9932621  98.5369147  40.6128496
  96.6942080  99.1705630  40.7657890  95.5227736  98.8783879  39.8524135
 104.1187017  96.8787097  28.8976403 104.3946861  96.7643691  29.8070277
 103.2491516  96.4804582  28.8588576 104.0227448  82.9023863  35.9381152
 103.1090528  83.1328089  36.1063359 104.4520550  82.9862307  36.7895184
 103.7933907  91.0913755  38.4381046 103.1405357  91.3389662  37.7833499
 104.1714287  90.2777893  38.1043523 100.7541081 101.1273448  32.5409216
 100.9363475 100.3095104  33.0036969 101.5774067 101.3441140  32.1034106
 101.0883246 100.0541633  29.8024265 101.6171013  99.5434087  29.1894427
 101.3511466  99.7384163  30.6669798  99.8421480  91.8333566  44.9247083
  99.1662117  91.7327695  45.5949458 100.6649114  91.6772779  45.3883080
  91.5900339  98.0705502  37.5459598  92.1753776  97.3249190  37.6787502
  91.3925177  98.3809459  38.4296262  94.4438994 101.1056750  32.5622041
  93.7749369 101.5902877  32.0786081  94.3051864 101.3525970  33.4765419
  86.1817994  90.6411102  36.2664041  86.2202093  90.1074693  37.0601159
  85.6758287  90.1146308  35.6475019  98.5844263 103.1400493  39.1604699
  99.1362571 103.3032115  39.9253784  98.9250456 103.7304931  38.4884724
  93.5608756  85.4875643  39.7626584  93.6250083  86.3490474  39.3503981
  93.4975876  84.8749645  39.0298942  93.0361029  87.5598775  43.4099618
  93.6633067  87.1775853  44.0237142  92.1788947  87.3412977  43.7755310
 103.4355137  97.9661751  45.0153353 103.9795041  98.5791709  44.5208308
 102.8541982  98.5241329  45.5320366  89.8126571  89.3675205  29.3417973
  90.1080012  88.4585883  29.2885026  88.9114607  89.3462944  29.0198975
 101.7212650 101.0882469  36.1468381 101.5963790 100.2872208  35.6379327
 102.3791741 101.5828662  35.6582351  93.3420818  87.4431201  35.3245521
  92.6207404  88.0567169  35.1852995  94.1314074  87.9788966  35.2462167
 103.7847558  98.8891489  37.7747931 102.8377894  98.7696840  37.7026258
 104.1330332  98.0013987  37.8574193  96.1447132  84.7785628  41.5986173
  96.6681534  85.0247924  42.3612482  95.9259465  85.6105662  41.1789310
  91.5414413  87.0489302  29.4657298  91.2127119  86.1686681  29.2832404
  91.8953784  86.9936971  30.3533687 100.7893992  98.6844205  33.9752283
 100.6418954  97.7560912  34.1559853 101.6147485  98.7064296  33.4909359
  94.6556236  87.3362272  29.8332776  94.9952309  87.8648193  29.1111384
  95.1028357  87.6742678  30.6091342 104.3928114  99.5072764  35.0617156
 105.3174661  99.3015625  34.9241607 104.2243417  99.2589165  35.9706498
  97.3499677  85.7199323  39.2835844  97.0096497  84.9207136  39.6856524
  96.6438683  86.0201034  38.7112677  98.0016149  82.8048635  37.7363167
  98.8242218  82.3309113  37.6142057  98.2454212  83.5839119  38.2361853
  96.6424383  85.8336894  28.0326068  97.3632746  86.2118146  27.5289785
  96.0189687  86.5525770  28.1361046 100.7855506  86.5382043  28.9684401
 101.0019120  87.4206680  28.6673229 100.3049573  86.1468256  28.2390043
  95.5254727  89.4967756  35.5455145  95.3799308  89.8108059  36.4379427
  95.0479931  90.1152656  34.9926044  97.3851110  86.4870304  35.5936035
  97.3712679  85.5911397  35.2568333  98.1023538  86.4940967  36.2274321
  99.2377241  86.9207644  37.6389162  98.9795019  87.8424715  37.6373493
  98.7062281  86.5238078  38.3289626 104.1823430 100.0258431  30.4179248
 104.3560307  99.4604854  29.6653100 104.6752321 100.8259326  30.2358738
  90.0000390  92.0373100  38.4842806  89.4553858  92.8132908  38.6163081
  90.8779740  92.3843905  38.3261928  96.7888006  85.3684684  30.8623605
  96.9103917  84.4401330  31.0614492  96.4990049  85.3823370  29.9501920
  99.6579197  83.0539594  33.9990325  99.6800894  83.1178928  33.0442304
 100.0747256  82.2144103  34.1930831 110.0362821  92.7894854  32.0369547
 110.4793967  92.0402179  31.6388671 109.1589331  92.7804990  31.6543279
 105.1698602  99.3425195  27.5176146 105.8649507  99.9631888  27.7363461
 105.5121752  98.4920547  27.7928524  90.7866412  91.1642996  41.3772963
  90.0448148  91.3125632  41.9637594  90.4659156  91.4251262  40.5139713
 107.0690025  96.7924901  29.0463477 107.5941350  97.1312174  28.3212797
 106.9812378  95.8571916  28.8626611  98.7310074 100.7058975  41.1753353
  99.0397201 100.4608121  42.0476053  99.5285556 100.9105613  40.6872224
  98.7530686 102.8596884  33.4058730  98.3135676 102.3673263  34.0991587
  99.5038803 102.3169852  33.1650805  91.2323025  99.0508425  33.4083358
  92.0581045  98.7512197  33.0282001  90.8817077  98.2816048  33.8573147
  96.2004558  98.4034893  35.4781032  95.5784568  97.7405598  35.1783259
  96.8709425  98.4296025  34.7954679  89.4331630  96.9694752  34.3672292
  88.5963539  96.5416926  34.1856293  89.4055276  97.1627195  35.3043083
  96.2729086  86.8816681  45.0713538  96.3217241  87.7578804  44.6891307
  96.8151600  86.3394074  44.4985181 106.7583932  97.4257805  44.3514675
 105.9679475  97.4081943  43.8119174 106.5217286  97.9646098  45.1063711
 106.8781807  94.2750271  41.6647403 106.9279811  94.1100278  42.6062926
 106.7695730  93.4077530  41.2745284  95.7618065  96.9538817  28.9539492
  95.9106186  97.6374281  28.3006165  96.5684509  96.9343907  29.4688948
 104.1685569  90.2581199  42.9806710 105.0695432  90.1187664  42.6890708
 104.2433543  90.4235654  43.9204887  98.5028374  87.6348054  41.8259896
  97.6331684  87.9281620  41.5542485  98.7387855  88.2188499  42.5467160
 108.3800003  96.6947213  41.9089425 108.0884812  97.0577193  42.7452886
 107.7672135  95.9814221  41.7302757 109.5795686  94.2600092  34.4291995
 110.4142577  94.6989896  34.5929555 109.7154815  93.7838746  33.6100241
 106.6287192  91.8179827  40.3769483 107.1041313  92.0107473  39.5688334
 105.7052757  91.8739013  40.1312866  93.5170698  92.9803994  29.9600561
  93.2716740  92.0766324  30.1580771  93.6866613  92.9821145  29.0180039
 101.2067408  83.8527671  39.3425317 101.7249352  84.5888698  39.0171805
 100.8522541  84.1591664  40.1772076  92.7866346  88.7132352  27.4586722
  92.0935591  88.7876707  26.8026758  92.5418098  87.9492696  27.9808239
 101.4580002  80.2727953  34.8626213 101.7381756  79.6051142  35.4886640
 102.2430609  80.4657049  34.3500877  99.2613471  99.4486947  26.4251240
  98.6887438 100.0677134  25.9721711  99.8346264  99.9986309  26.9591161
 105.3288861  88.6945587  38.6097788 106.2806284  88.7943685  38.6310012
 105.1592311  87.9023856  39.1195873 103.3503240  85.7801170  38.7957189
 102.7553172  86.0606183  38.1003678 103.0652937  86.2695071  39.5673930
 102.4810731  99.7324097  27.5559822 103.4141404  99.6669659  27.7592697
 102.3933943 100.5680364  27.0974354 107.8076938  91.9151707  37.7240088
 107.7753259  90.9767708  37.9099772 108.4177562  91.9935744  36.9905913
  99.6460269  90.7847760  23.7667292 100.5919374  90.6553968  23.8355710
  99.2674514  90.0462422  24.2436720 107.9571427  88.7062750  37.7698371
 107.4410476  87.9221207  37.5828300 108.8411375  88.3781467  37.9344891
 105.6182154  82.4503766  33.7294184 105.4206975  82.1418854  34.6137516
 106.2281859  83.1765405  33.8592114 113.6253488  92.9767714  36.8646125
 114.3556877  92.7153002  37.4253828 113.0160434  92.2396436  36.9048193
 111.7068785  91.1175576  37.4620576 110.9801949  90.9831541  36.8537068
 111.2916072  91.4252405  38.2677294  99.5298962  94.8365506  45.2267949
 100.4501971  95.0144105  45.4207996  99.4948545  93.8921551  45.0747648
  97.8303186  88.7097736  23.7022177  96.9234642  88.4130849  23.7784891
  98.1079167  88.4127554  22.8356463  88.7481127  90.0304100  34.1521224
  88.4283911  89.1769408  33.8595598  88.2014555  90.2452678  34.9079191
  92.5261034  92.7466541  37.8690730  92.7447044  93.6783649  37.8878764
  92.9386808  92.3874515  38.6545534  99.4465252  83.2534626  29.8566419
  98.6365980  82.9081711  30.2321665 100.1349669  82.9442170  30.4454030
 101.3755800  82.3312673  31.4790715 101.9286839  82.7508126  32.1380738
 101.6125887  81.4048421  31.5213671  97.3988900  88.3199746  47.2593479
  97.2985627  89.2694103  47.1905570  97.1810442  87.9917985  46.3869549
  96.6001971  85.5684672  23.8434156  97.4621135  85.8939570  24.1029974
  96.7852315  84.7816167  23.3307222  88.6169387  93.6507011  36.1214345
  87.9232858  93.2360964  35.6084300  89.3642378  93.6927548  35.5247764
 104.7534608  84.4413198  30.9869379 104.1733277  85.0998002  30.6047432
 104.4870540  83.6190543  30.5756797 103.2038174  83.8418256  33.1890700
 103.7037952  83.9534790  32.3805019 103.8473782  83.5379309  33.8291508
  97.2620170  91.7496885  46.0758541  96.7787251  92.5497245  46.2822430
  97.3481109  91.7604830  45.1225985  90.5306129  93.5825265  33.9980360
  90.5076817  93.6812952  33.0462243  90.8406766  94.4290416  34.3197526
  93.1893507  95.6401420  38.1126975  94.1436761  95.6085362  38.0456906
  92.9906031  95.1792044  38.9277200  93.7792889  94.2102536  40.6797772
  94.5985778  94.7046615  40.7032609  94.0529697  93.2934504  40.6515340
 103.5359486  86.6013288  30.0425728 102.6485341  86.8862939  29.8245922
 103.9513475  86.4407052  29.1953005 106.8874022  86.6259809  33.7580067
 107.6634412  87.1156262  34.0304684 106.1622156  87.0517864  34.2151936
 109.3246580  87.3387429  34.8154008 109.9191071  87.0983165  34.1047316
 109.3973164  86.6194559  35.4427544  91.5443736 101.1821040  35.1297172
  91.4098204 100.4221440  34.5635170  91.1275798 101.9061939  34.6625961
 102.6802699  96.3657963  24.1373748 103.3838549  96.5707966  24.7531403
 101.9565348  96.9334725  24.4022831 103.5100509  92.1167824  30.2576018
 103.4535711  92.5736376  29.4183650 104.0628852  91.3558509  30.0798861
 107.3205315  87.9057556  31.0826137 107.0642249  87.5054192  31.9134345
 106.6958183  88.6201350  30.9576277 111.6317653  90.6453629  33.5897429
 111.0717211  90.7146819  34.3628991 111.0261156  90.4694614  32.8696925
  94.7012862 102.0790357  35.3415615  94.5845246 103.0235789  35.2394305
  93.8805308 101.7763918  35.7301414 104.5889396  96.8040492  26.1872208
 105.4235000  96.3721691  26.0049683 104.4273739  96.6322506  27.1149102
 104.2435289  93.3072606  27.5528547 104.1884092  93.1416877  26.6116991
 103.6181344  94.0148638  27.7090737  89.0327804  88.5440670  41.3789969
  89.6786667  88.0339624  41.8677194  88.8244955  89.2809352  41.9533395
 101.5581196  95.6121517  46.8782110 102.4272355  95.7862170  46.5168745
 101.0787947  96.4315934  46.7557839  97.5531414  82.8080715  27.1313865
  97.5410084  83.7522554  27.2882136  98.4454836  82.6250860  26.8373327
  95.7267376 102.7318618  38.5571543  96.6294623 102.7642229  38.8738038
  95.5004746 101.8019069  38.5717879  97.4820978 101.4849605  35.2181622
  96.5316609 101.4851467  35.1045994  97.7853464 100.7382340  34.7017657
 101.3683534  79.4023491  31.3859802 100.6015929  78.8481978  31.5316485
 101.7794238  79.4745360  32.2473954  93.3725295  85.6908287  45.4764983
  94.2356756  85.3345092  45.6868308  92.7990705  85.3522182  46.1640388
 113.2173672 107.3210143  36.2827384 113.8552081 107.2016891  35.5790725
 113.0994514 108.2690987  36.3415337 110.0263378 107.2737571  36.2188909
 109.6881889 107.1578636  35.3309444 110.8953146 106.8728737  36.1989915
 110.5083161 108.4272423  42.1775115 110.4971802 108.0325221  41.3055618
 110.6703800 107.6938496  42.7708886 103.4314625 110.6224239  35.0470021
 104.2235917 110.2815064  34.6316320 103.6711276 110.7319215  35.9672174
 107.2290422 111.2109535  41.1254299 106.9380288 112.1155166  41.0100965
 107.8647406 111.2526063  41.8398368 108.1546629 108.5886384  37.7155658
 108.7510201 108.3642406  37.0012621 108.2121600 107.8471129  38.3181106
 112.7714940 105.0461597  33.3580593 113.5578029 104.6281020  33.0071010
 113.0353644 105.9507689  33.5262241 115.6948787  98.6958405  38.7208180
 115.3632112  99.5653815  38.4969395 115.0994401  98.3794689  39.4002210
 112.1880307 110.8970950  38.1204092 111.8881030 111.7995989  38.0119900
 111.8431367 110.6303134  38.9725245 105.6392788 107.3484747  34.1540797
 104.7143285 107.2160961  34.3618489 105.8877202 108.1278967  34.6510739
 115.5877451 103.4153491  35.8001530 114.6794328 103.3468899  35.5060291
 115.5365047 103.8925436  36.6283355 103.0001600 106.9918021  34.9884586
 103.1293981 107.2452500  35.9023998 102.3199051 107.5845729  34.6689241
 109.6618317 104.8343136  43.7436427 108.8851651 105.3937056  43.7339292
 110.3008880 105.3199919  44.2651297 117.4539097 101.6169929  37.5779404
 116.8113477 101.9102462  36.9319198 116.9494026 101.5022849  38.3832600
 107.9164689 107.6428590  43.3054394 108.6579373 108.1813634  43.0289218
 107.2101674 108.2694878  43.4625946 113.3920029 109.7857730  41.9026555
 113.8003385 109.3440141  41.1581188 112.6697290 109.2110358  42.1560748
 109.7451099 104.7230337  39.2760112 110.5912294 105.1469750  39.4194761
 109.6849736 104.0663961  39.9698676 112.8950544 102.3834705  40.9341286
 112.6511476 103.1376766  40.3975562 113.1710474 102.7620053  41.7688533
 114.8489007 108.9273318  39.6118552 115.0605902 109.5705077  38.9352933
 114.8018755 108.0935634  39.1440482 112.4515236 101.5391138  36.5155124
 111.5899715 101.8372392  36.8071861 112.4777670 101.7561537  35.5836156
 106.1600886 109.6304810  35.8608693 106.7302243 110.0592079  35.2226177
 106.7508998 109.3487395  36.5592878 106.6526053 104.7968238  44.1069704
 106.0224713 105.4784519  44.3405101 106.5462141 104.6851319  43.1622842
 101.9471025 104.4640034  35.0335628 101.1570079 104.7197562  34.5575739
 102.4382272 105.2788372  35.1387669 103.8985770 104.8284613  31.9919105
 103.1016934 104.9403307  32.5102601 103.6711363 105.1671265  31.1259995
 109.7291438 111.3529316  39.9401619 109.7935871 111.8149724  40.7759791
 109.0202362 110.7226681  40.0683929 100.2308728 104.7170524  37.4650619
 100.4816766 105.6017534  37.7308195 100.7668276 104.5375126  36.6925711
 105.9306795  99.0989004  46.4694955 105.5373741  98.5455202  47.1442599
 106.7472936  99.4099582  46.8601473 108.8474756 100.5146883  44.0615212
 109.5884470 101.1154036  43.9819674 109.0792679  99.7724521  43.5033254
 103.9916094 105.7003250  42.3393441 103.8769609 104.7988507  42.6400540
 103.1360612 105.9466947  41.9878258 105.8295053 115.1716792  38.4641620
 106.3802478 115.0433855  37.6918614 104.9906529 115.4711681  38.1136513
 109.6262224 111.4367920  42.8085852 110.1590561 110.6756208  42.5785159
 109.0976305 111.1441572  43.5510006 112.7931919  96.5427986  38.3379493
 112.4496189  97.4329627  38.2618604 113.1610882  96.3529643  37.4749078
 100.8617770 108.8661516  31.1568095 101.6992992 109.2758525  30.9401803
 101.0396038 107.9260958  31.1268289 110.3429313 101.3786298  31.9037167
 109.4870909 100.9893148  31.7242805 110.7556265 101.4578258  31.0436952
 111.8728460  98.9132641  36.3028727 111.3693255  98.8762776  35.4896532
 112.1659067  99.8225384  36.3625383 108.1171346  98.9971371  35.3094908
 108.9824342  98.8014179  34.9500798 108.1848854  98.7681722  36.2364265
 105.7233665 101.2273578  32.6811275 106.2977417 101.0048760  31.9484468
 106.3104647 101.2962273  33.4339876 108.0256332  98.1014827  31.4086344
 107.3720745  97.7863845  30.7842959 107.9836806  97.4790568  32.1346167
 111.2594073 104.5896761  35.7333992 110.3416634 104.8111708  35.5755680
 111.6754216 104.6643071  34.8745699 114.5919585  95.8021545  33.4397231
 114.8978462  94.9418908  33.1523146 115.3172190  96.3939165  33.2396225
 100.8843941 106.2052231  31.8278829 100.6868341 105.6121592  31.1029895
 100.3290605 105.9004442  32.5454768 108.8640665 106.0975338  33.9473422
 108.9189274 105.1449174  33.8715899 108.0531867 106.2534777  34.4314720
 106.8033025 104.7152398  31.7063801 105.9900890 105.0146568  32.1128993
 107.2992019 104.3208086  32.4238283 112.4007236 105.1794222  40.5378695
 112.7556624 105.4065695  41.3973161 113.0479368 105.5112599  39.9155950
 106.2947099 102.2870753  37.3225036 106.9346479 102.1459512  36.6247999
 105.4624630 102.0005267  36.9463638 103.2975716 102.2571078  32.0998023
 103.5582533 103.1716411  31.9907183 104.1192888 101.7895521  32.2494635
 104.7700641 103.6708835  39.2696847 105.4423695 103.4626197  38.6209496
 103.9430428 103.4730921  38.8302079 110.6726213 100.2970776  41.2862508
 110.0254128 100.9960726  41.1926984 111.4427229 100.7306920  41.6538756
 110.8490347 108.1351541  39.3459328 111.7782407 108.2862701  39.1728295
 110.4281378 108.2235562  38.4907974 109.6478679 112.1602206  37.1157865
 109.5089765 111.7920990  37.9883803 108.8593275 112.6749845  36.9441823
 105.1728138 106.9451438  40.0299284 105.0347936 106.2131677  40.6310823
 106.0833062 106.8560338  39.7483472 107.8010439 106.6571398  39.5182964
 108.5110058 106.0164590  39.4769582 107.7579747 106.9084293  40.4409145
 106.5139373 103.6436616  41.3378603 105.9776730 103.1927354  41.9900200
 105.9256081 103.7782524  40.5949068  97.4443772 107.8902427  33.9946574
  98.1314812 107.5764157  33.4067590  97.2891901 108.7943791  33.7213826
 102.2478494 102.7792623  38.4231598 102.1636683 102.1718293  37.6882008
 101.4261201 103.2701642  38.4241094 112.4202208 101.2646187  33.7901793
 112.9170908 100.5116149  33.4702863 111.6489190 101.3010503  33.2245002
 109.0037177 103.4063570  33.5173478 108.6334964 102.8534610  34.2054383
 109.4996269 102.8021703  32.9648478 106.8326375 113.8661065  40.6128496
 107.5335835 114.4997548  40.7657890 106.3621490 114.2075796  39.8524135
 114.8621203  98.2315780  35.9381152 113.9484283  98.4620007  36.1063359
 115.2914304  98.3154224  36.7895184 114.6327661 106.4205672  38.4381046
 113.9799112 106.6681580  37.7833499 115.0108041 105.6069810  38.1043523
 110.6815234 107.1625483  44.9247083 110.0055871 107.0619613  45.5949458
 111.5042868 107.0064697  45.3883080 102.4294094 113.3997420  37.5459598
 103.0147530 112.6541108  37.6787502 102.2318932 113.7101377  38.4296262
  97.0211748 105.9703020  36.2664041  97.0595848 105.4366611  37.0601159
  96.5152041 105.4438226  35.6475019 104.4002511 100.8167561  39.7626584
 104.4643837 101.6782391  39.3503981 104.3369631 100.2041562  39.0298942
 103.8754783 102.8890693  43.4099618 104.5026822 102.5067770  44.0237142
 103.0182702 102.6704895  43.7755310 100.6520326 104.6967122  29.3417973
 100.9473767 103.7877801  29.2885026  99.7508362 104.6754862  29.0198975
 104.1814573 102.7723119  35.3245521 103.4601159 103.3859086  35.1852995
 104.9707829 103.3080884  35.2462167 106.9840886 100.1077545  41.5986173
 107.5075288 100.3539842  42.3612482 106.7653220 100.9397580  41.1789310
 102.3808167 102.3781220  29.4657298 102.0520874 101.4978599  29.2832404
 102.7347538 102.3228889  30.3533687 105.4949991 102.6654190  29.8332776
 105.8346063 103.1940111  29.1111384 105.9422111 103.0034596  30.6091342
 108.1893431 101.0491240  39.2835844 107.8490252 100.2499053  39.6856524
 107.4832438 101.3492951  38.7112677 108.8409903  98.1340553  37.7363167
 109.6635973  97.6601031  37.6142057 109.0847967  98.9131037  38.2361853
 106.3648482 104.8259673  35.5455145 106.2193063 105.1399977  36.4379427
 105.8873686 105.4444574  34.9926044 108.2244865 101.8162221  35.5936035
 108.2106434 100.9203315  35.2568333 108.9417293 101.8232885  36.2274321
 110.0770996 102.2499562  37.6389162 109.8188773 103.1716632  37.6373493
 109.5456036 101.8529996  38.3289626 100.8394144 107.3665018  38.4842806
 100.2947612 108.1424826  38.6163081 101.7173494 107.7135822  38.3261928
 107.6281761 100.6976602  30.8623605 107.7497672  99.7693248  31.0614492
 107.3383803 100.7115288  29.9501920 110.4972951  98.3831512  33.9990325
 110.5194648  98.4470845  33.0442304 110.9141010  97.5436021  34.1930831
 101.6260166 106.4934914  41.3772963 100.8841902 106.6417549  41.9637594
 101.3052910 106.7543180  40.5139713 100.2725385 112.2986669  34.3672292
  99.4357293 111.8708844  34.1856293 100.2449030 112.4919113  35.3043083
 107.1122840 102.2108599  45.0713538 107.1610996 103.0870722  44.6891307
 107.6545355 101.6685992  44.4985181 115.0079323 105.5873117  42.9806710
 115.9089186 105.4479582  42.6890708 115.0827298 105.7527572  43.9204887
 109.3422129 102.9639971  41.8259896 108.4725438 103.2573538  41.5542485
 109.5781609 103.5480416  42.5467160 117.4680946 107.1471745  40.3769483
 117.9435068 107.3399391  39.5688334 116.5446511 107.2030931  40.1312866
 112.0461163  99.1819588  39.3425317 112.5643106  99.9180615  39.0171805
 111.6916295  99.4883582  40.1772076 112.2973757  95.6019871  34.8626213
 112.5775511  94.9343060  35.4886640 113.0824364  95.7948967  34.3500877
 116.1682615 104.0237505  38.6097788 117.1200038 104.1235603  38.6310012
 115.9986066 103.2315773  39.1195873 114.1896995 101.1093088  38.7957189
 113.5946927 101.3898101  38.1003678 113.9046691 101.5986989  39.5673930
 118.7965181 104.0354668  37.7698371 118.2804230 103.2513125  37.5828300
 119.6805130 103.7073385  37.9344891 116.4575908  97.7795684  33.7294184
 116.2600729  97.4710772  34.6137516 117.0675614  98.5057323  33.8592114
 110.3692716 110.1657424  45.2267949 111.2895726 110.3436023  45.4207996
 110.3342299 109.2213469  45.0747648  99.5874881 105.3596017  34.1521224
  99.2677666 104.5061326  33.8595598  99.0408309 105.5744596  34.9079191
 103.3654789 108.0758458  37.8690730 103.5840799 109.0075566  37.8878764
 103.7780563 107.7166433  38.6545534 110.2859007  98.5826544  29.8566419
 109.4759735  98.2373629  30.2321665 110.9743424  98.2734087  30.4454030
 112.2149555  97.6604591  31.4790715 112.7680594  98.0800044  32.1380738
 112.4519641  96.7340339  31.5213671 108.2382654 103.6491664  47.2593479
 108.1379381 104.5986021  47.1905570 108.0204196 103.3209903  46.3869549
  99.4563141 108.9798929  36.1214345  98.7626613 108.5652882  35.6084300
 100.2036132 109.0219465  35.5247764 114.0431928  99.1710173  33.1890700
 114.5431707  99.2826708  32.3805019 114.6867536  98.8671226  33.8291508
 108.1013924 107.0788803  46.0758541 107.6181006 107.8789163  46.2822430
 108.1874863 107.0896748  45.1225985 101.3699884 108.9117183  33.9980360
 101.3470572 109.0104870  33.0462243 101.6800520 109.7582333  34.3197526
 104.0287262 110.9693338  38.1126975 104.9830515 110.9377280  38.0456906
 103.8299785 110.5083961  38.9277200 104.6186644 109.5394454  40.6797772
 105.4379533 110.0338532  40.7032609 104.8923452 108.6226422  40.6515340
 117.7267776 101.9551727  33.7580067 118.5028166 102.4448179  34.0304684
 117.0015910 102.3809781  34.2151936  99.8721558 103.8732588  41.3789969
 100.5180422 103.3631542  41.8677194  99.6638709 104.6101269  41.9533395
 112.2077288  94.7315409  31.3859802 111.4409684  94.1773896  31.5316485
 112.6187993  94.8037278  32.2473954 104.2119049 101.0200205  45.4764983
 105.0750511 100.6637010  45.6868308 103.6384460 100.6814099  46.1640388
  46.0345406  -1.3268393  30.6626249  45.5909261  -2.1132015  30.3447153
  46.6962620  -1.1389243  29.9970139  48.1326644  -1.0465593  28.6907650
  48.1145120  -0.2256712  28.1987919  49.0546565  -1.1711518  28.9157791
  49.0442485  -4.4069755  31.0858368  48.8927992  -4.6359203  30.1688452
  49.0347165  -3.4499154  31.0989713  50.7534692  -1.3750632  29.1634850
  50.6947238  -2.0591412  28.4965433  51.1554210  -0.6331642  28.7115476
  49.2386366  -1.6735715  31.7398660  49.7826270  -1.0605757  31.2453615
  48.6573211  -1.1156137  32.2565673  52.5615160  -2.2139661  31.0759981
  51.7710704  -2.2315522  30.5364481  52.3248515  -1.6751367  31.8309018
  54.1831232  -2.9450253  28.6334731  53.8916041  -2.5820273  29.4698192
  53.5703363  -3.6583245  28.4548063  47.3612425  -4.0275948  33.6027416
  48.2303584  -3.8535296  33.2414051  46.8819176  -3.2081532  33.4803146
  59.0204900   7.6812678  23.0072691  59.6583310   7.5619425  22.3036031
  58.9025743   8.6293522  23.0660643  55.8294607   7.6340106  22.9434216
  55.4913118   7.5181170  22.0554751  56.6984375   7.2331271  22.9235222
  56.3114390   8.7874957  28.9020421  56.3003030   8.3927756  28.0300925
  56.4735029   8.0541030  29.4954193  49.2345854  10.9826774  21.7715327
  50.0267146  10.6417598  21.3561627  49.4742504  11.0921749  22.6917481
  53.0321651  11.5712069  27.8499605  52.7411517  12.4757700  27.7346272
  53.6678635  11.6128597  28.5643675  53.9577858   8.9488918  24.4400965
  54.5541430   8.7244940  23.7257928  54.0152829   8.2073663  25.0426413
  63.9754596   5.3439365  20.9858878  64.7079768   4.7738581  21.2196707
  63.2193952   4.9560965  21.4265383  61.4980016  -0.9439061  25.4453486
  61.1663341  -0.0743650  25.2214701  60.9025630  -1.2602777  26.1247517
  57.9911536  11.2573485  24.8449399  57.6912259  12.1598524  24.7365206
  57.6462595  10.9905668  25.6970552  61.3908680   3.7756025  22.5246836
  60.4825557   3.7071433  22.2305597  61.3396275   4.2527970  23.3528662
  52.9732316  18.0217805  17.8120367  52.8956345  18.9725630  17.8908847
  52.3693959  17.6763678  18.4695293  55.4649545   5.1945670  30.4681734
  54.6882879   5.7539591  30.4584598  56.1040108   5.6802453  30.9896604
  63.2570326   1.9772463  24.3024710  62.6144706   2.2704996  23.6564505
  62.7525255   1.8625384  25.1077907  53.7195918   8.0031124  30.0299701
  54.4610602   8.5416168  29.7534524  53.0132903   8.6297413  30.1871252
  59.1951257  10.1460264  28.6271862  59.6034613   9.7042675  27.8826494
  58.4728519   9.5712892  28.8806055  55.5482327   5.0832871  26.0005419
  56.3943523   5.5072285  26.1440068  55.4880965   4.4266495  26.6943982
  59.5180072  10.7061455  22.3824151  58.8888934  10.8707169  21.6800219
  59.1305734  11.1203064  23.1535115  63.3969304  11.6415893  19.7368515
  62.7120342  12.0214794  19.1865548  63.4813153  12.2511219  20.4700462
  58.6981773   2.7437239  27.6586593  58.4542705   3.4979300  27.1220868
  58.9741703   3.1222587  28.4933840  60.6520235   9.2875852  26.3363858
  60.8637131   9.9307612  25.6598239  60.6049984   8.4538168  25.8685788
  55.0708034  10.4435863  19.6474236  55.5346379  10.7223566  18.8578859
  54.8064832   9.5419308  19.4647327  51.9632115   9.9907345  22.5853999
  52.5333472  10.4194613  21.9471484  52.5540227   9.7089929  23.2838185
  52.4557281   5.1570772  30.8315011  51.8255942   5.8387053  31.0650407
  52.3493369   5.0453854  29.8868149  61.7666063  12.1647807  24.5086216
  62.5883507  11.7627995  24.2268897  61.7628466  12.0616041  25.4602331
  55.5322667  11.7131851  26.6646926  55.5967099  12.1752258  27.5005098
  54.8233591  11.0829215  26.7929236  69.8572056   8.5086556  20.8571187
  69.1035765   7.9393954  20.7015192  69.9919598   8.4749220  21.8041822
  51.7338024  -0.5408462  33.1940262  51.3404970  -1.0942264  33.8687906
  52.5504164  -0.2297884  33.5846779  50.5094967  14.0141152  19.1876585
  50.6861595  14.9359117  18.9997569  51.3051800  13.6999572  19.6170964
  54.6505985   0.8749417  30.7860518  55.3915699   1.4756570  30.7064981
  54.8823908   0.1327055  30.2278561  49.7947323   6.0605784  29.0638748
  49.6800838   5.1591041  29.3645847  48.9391841   6.3069481  28.7123564
  56.8739161  14.0023525  30.6626249  56.4303015  13.2159903  30.3447153
  57.5356374  14.1902675  29.9970139  51.6326282  15.5319326  25.1886927
  52.1833707  15.4036389  24.4163921  50.7937758  15.8314215  24.8381820
  58.9720399  14.2826324  28.6907650  58.9538874  15.1035205  28.1987919
  59.8940319  14.1580400  28.9157791  55.4293453  11.7970454  29.5331158
  55.9621790  11.0358742  29.3030466  54.9007534  11.5044106  30.2755313
  61.7739012   9.1205467  22.1617016  61.1162686   9.8104728  22.2497145
  62.5779411   9.5101899  22.5051003  60.5844471   7.4749840  20.2120958
  61.0976352   8.1079831  20.7142668  61.2345695   6.8751035  19.8464318
  57.0625302   4.9499295  22.4579299  56.1447863   5.1714242  22.3000987
  57.4785445   5.0245606  21.5991006  61.3506267  12.4555841  18.3400101
  60.8968594  11.6146751  18.3965291  60.7200234  13.0917239  18.6774881
  59.7939206  14.2932338  19.2749919  60.0862180  14.8537395  18.5562285
  60.3037827  14.5860899  20.0303078  54.7572831  15.0712689  20.3643372
  54.7149010  15.2973535  19.4351904  55.6735530  14.8376063  20.5129173
  58.2038465   5.5396756  27.2624001  58.5587853   5.7668230  28.1218467
  58.8510596   5.8715133  26.6401257  63.9336202   8.6615192  17.9673330
  63.7954101   8.8516788  17.0394520  63.5772421   9.4234575  18.4241382
  63.9605582  10.7291719  22.9784602  64.3942088  10.6367008  23.8267656
  64.6737162  10.7049220  22.3404618  52.8738632  11.9475718  20.1605335
  53.6679231  11.4526038  19.9587910  52.1630324  11.4193581  19.7973040
  57.6933477  14.3293813  24.5117703  57.7470499  14.8984750  25.2795418
  56.8248258  14.4995698  24.1471740  50.5731870   4.0311370  25.9942154
  51.2454923   3.8228732  25.3454803  49.7461656   3.8333456  25.5547386
  64.8221131  10.7715420  25.5117487  65.0157021  11.6761230  25.7576762
  64.7221749  10.3122839  26.3456072  56.4757442   0.6573310  28.0107815
  55.8285357   1.3563260  27.9172291  57.2458457   1.0909454  28.3784063
  59.8836240  10.9222163  31.0858368  59.7321746  10.6932714  30.1688452
  59.8740919  11.8792764  31.0989713  56.6521576   8.4954075  26.0704634
  57.5813636   8.6465235  25.8973602  56.2312606   8.5838096  25.2153281
  55.4509908  12.5204740  23.8403172  55.3120994  12.1523524  24.7129110
  54.6624504  13.0352379  23.6687130  56.0458060  17.6213836  15.1828709
  56.2209816  17.1501879  15.9974331  55.3590848  18.2479602  15.4109969
  57.0015123  11.8986343  21.2292010  56.6664956  11.8587112  22.1249660
  56.5019069  11.2331058  20.7562420  50.9759367   7.3053973  26.7544591
  50.8379165   6.5734211  27.3556130  51.8864291   7.2162873  26.4728779
  53.6041668   7.0173932  26.2428271  54.3141286   6.3767124  26.2014889
  53.5610976   7.2686827  27.1654451  61.5928447  13.9541285  29.1634850
  61.5340993  13.2700505  28.4965433  61.9947965  14.6960275  28.7115476
  52.3170602   4.0039150  28.0623910  51.7807959   3.5529888  28.7145506
  51.7287310   4.1385059  27.3194374  50.6119145  20.7703199  21.9568569
  50.8515744  21.4021723  22.6347587  49.7688342  20.4191239  22.2433928
  61.5945854  11.9180869  27.3948829  60.7072633  11.5806791  27.5175228
  62.1644405  11.1863900  27.6317595  55.1247007  16.5782321  24.3610073
  55.0517179  17.3837293  24.8729377  54.6824400  16.7774287  23.5358094
  54.9136787  15.8154092  17.8712894  54.1304309  16.3575772  17.9651119
  55.6129532  16.3328071  18.2707135  66.0763194   7.3289087  22.1565391
  66.0653071   8.2113802  21.7859324  65.2080574   6.9760637  21.9619928
  57.5845691  16.4769156  26.5168231  58.2973663  17.1116620  26.4444133
  57.0935719  16.5733022  25.7008233  59.3063218  10.3820408  18.0885523
  58.3719496  10.5021871  17.9190227  59.4839886   9.4792875  17.8245533
  62.6935769   6.2237727  18.6235557  63.1596221   7.0565719  18.5495860
  63.1443269   5.7582709  19.3280816  52.6357604  14.2263599  27.3373802
  53.3367064  14.8600082  27.4903196  52.1652719  14.5678331  26.5769441
  60.4358890   6.7808206  25.1626353  59.7830340   7.0284114  24.5078805
  60.8139270   5.9672345  24.8288830  57.3966064  16.8167900  19.2654523
  57.5788459  15.9989556  19.7282275  58.2199050  17.0335592  18.8279413
  57.7308230  15.7436085  16.5269571  58.2595996  15.2328539  15.9139733
  57.9936449  15.4278615  17.3915104  56.4846463   7.5228017  31.6492390
  55.8087100   7.4222147  32.3194765  57.3074097   7.3667231  32.1128387
  48.2325322  13.7599954  24.2704905  48.8178759  13.0143642  24.4032809
  48.0350161  14.0703911  25.1541569  51.0863978  16.7951201  19.2867347
  50.4174353  17.2797329  18.8031387  50.9476847  17.0420422  20.2010726
  55.2269246  18.8294945  25.8850006  55.7787554  18.9926566  26.6499091
  55.5675440  19.4199383  25.2130030  49.6786012   3.2493227  30.1344925
  50.3058051   2.8670305  30.7482449  48.8213931   3.0307429  30.5000617
  60.0780120  13.6556202  31.7398660  60.6220024  14.2686161  31.2453615
  59.4966965  14.2135781  32.2565673  58.3637633  16.7776920  22.8713688
  58.2388773  15.9766660  22.3624633  59.0216725  17.2723114  22.3827658
  60.4272542  14.5785941  24.4993238  59.4802877  14.4591292  24.4271565
  60.7755315  13.6908439  24.5819499  52.7872115   0.4680079  28.3231480
  53.3106517   0.7142376  29.0857789  52.5684448   1.3000114  27.9034617
  57.4318975  14.3738657  20.6997590  57.2843938  13.4455364  20.8805160
  58.2572469  14.3958747  20.2154665  61.0353097  15.1967216  21.7862463
  61.9599644  14.9910077  21.6486914  60.8668400  14.9483617  22.6951804
  53.9924660   1.4093775  26.0081150  53.6521481   0.6101588  26.4101830
  53.2863666   1.7095485  25.4357983  55.8802224   2.6102096  24.3634469
  55.6220002   3.5319166  24.3618799  55.3487265   2.2132530  25.0534933
  60.8248413  15.7152883  17.1424554  60.9985291  15.1499305  16.3898407
  61.3177304  16.5153778  16.9604044  46.6425373   7.7267552  25.2088113
  46.0978841   8.5027360  25.3408387  47.5204723   8.0738357  25.0507235
  66.6787804   8.4789306  18.7614854  67.1218950   7.7296631  18.3633977
  65.8014315   8.4699442  18.3788586  61.8123586  15.0319647  14.2421453
  62.5074490  15.6526340  14.4608767  62.1546736  14.1814999  14.5173830
  47.4291395   6.8537448  28.1018270  46.6873131   7.0020084  28.6882900
  47.1084139   7.1145714  27.2385019  63.7115009  12.4819353  15.7708783
  64.2366333  12.8206626  15.0458103  63.6237361  11.5466368  15.5871918
  55.3735057  16.3953427  27.8998660  55.6822184  16.1502573  28.7721360
  56.1710539  16.6000065  27.4117530  55.3955669  18.5491336  20.1304037
  54.9560660  18.0567715  20.8236893  56.1463786  18.0064304  19.8896112
  47.8748008  14.7402877  20.1328665  48.7006028  14.4406649  19.7527308
  47.5242060  13.9710499  20.5818453  52.8429542  14.0929345  22.2026338
  52.2209551  13.4300050  21.9028566  53.5134409  14.1190477  21.5199986
  52.9154069   2.5711133  31.7958844  52.9642225   3.4473256  31.4136614
  53.4576583   2.0288526  31.2230487  63.4008915  13.1152257  31.0759981
  62.6104459  13.0976395  30.5364481  63.1642269  13.6540550  31.8309018
  63.5206790   9.9644723  28.3892710  63.5704795   9.7994730  29.3308233
  63.4120713   9.0971982  27.9990591  60.8110552   5.9475651  29.7052017
  61.7120415   5.8082116  29.4136014  60.8858527   6.1130106  30.6450194
  55.1453358   3.3242506  28.5505203  54.2756667   3.6176072  28.2787791
  55.3812838   3.9082951  29.2712466  65.0224987  12.3841664  28.6334731
  64.7309795  12.7471645  29.4698192  64.4097118  11.6708673  28.4548063
  66.2220669   9.9494544  21.1537302  67.0567560  10.3884348  21.3174862
  66.3579798   9.4733197  20.3345547  63.2712175   7.5074279  27.1014789
  63.7466297   7.7001925  26.2933641  62.3477740   7.5633465  26.8558173
  57.8492391  -0.4577877  26.0670623  58.3674335   0.2783150  25.7417112
  57.4947524  -0.1513884  26.9017382  61.9713844   4.3840039  25.3343095
  62.9231267   4.4838137  25.3555319  61.8017294   3.5918308  25.8441179
  59.9928223   1.4695622  25.5202496  59.3978156   1.7500635  24.8248985
  59.7077920   1.9589523  26.2919237  64.4501922   7.6046159  24.4485395
  64.4178242   6.6662160  24.6345078  65.0602545   7.6830196  23.7151219
  64.5996410   4.3957202  24.4943678  64.0835459   3.6115659  24.3073607
  65.4836359   4.0675919  24.6590197  70.2678472   8.6662166  23.5891431
  70.9981860   8.4047454  24.1499135  69.6585417   7.9290888  23.6293499
  68.3493769   6.8070028  24.1865883  67.6226932   6.6725993  23.5782374
  67.9341056   7.1146857  24.9922601  56.1723945  10.5259958  31.9513256
  57.0926955  10.7038557  32.1453302  56.1373528   9.5816003  31.7992955
  49.1686018   8.4360993  24.5936037  49.3872027   9.3678100  24.6124071
  49.5811791   8.0768967  25.3790841  54.0413883   4.0094198  33.9838786
  53.9410610   4.9588555  33.9150877  53.8235425   3.6812437  33.1114856
  53.9045153   7.4391337  32.8003847  53.4212235   8.2391697  33.0067736
  53.9906092   7.4499282  31.8471291  49.8318491  11.3295872  24.8372281
  50.7861744  11.2979814  24.7702213  49.6331014  10.8686496  25.6522507
  50.4217873   9.8996988  27.4043079  51.2410762  10.3941067  27.4277916
  50.6954680   8.9828956  27.3760646  63.5299005   2.3154261  20.4825374
  64.3059395   2.8050714  20.7549990  62.8047139   2.7412315  20.9397243
  65.9671564   3.0281880  21.5399314  66.5616054   2.7877616  20.8292622
  66.0398147   2.3089011  22.1672850  48.1868719  16.8715491  21.8542479
  48.0523187  16.1115892  21.2880477  47.7700782  17.5956391  21.3871268
  68.2742636   6.3348081  20.3142735  67.7142194   6.4041271  21.0874297
  67.6686140   6.1589066  19.5942232  51.3437845  17.7684808  22.0660922
  51.2270229  18.7130241  21.9639612  50.5230291  17.4658370  22.4546721
  45.6752787   4.2335122  28.1035276  46.3211650   3.7234076  28.5922501
  45.4669938   4.9703803  28.6778701  58.2006179  11.3015969  33.6027416
  59.0697339  11.4756622  33.2414051  57.7212931  12.1210386  33.4803146
  52.3692359  18.4213070  25.2816850  53.2719606  18.4536681  25.5983345
  52.1429729  17.4913521  25.2963186  54.1245961  17.1744057  21.9426929
  53.1741592  17.1745918  21.8291301  54.4278447  16.4276791  21.4262963
  50.0150278   1.3802739  32.2010290  50.8781739   1.0239544  32.4113615
  49.4415689   1.0416634  32.8885694  69.8598655  23.0104595  23.0072691
  70.4977065  22.8911343  22.3036031  69.7419498  23.9585439  23.0660643
  66.6688361  22.9632023  22.9434216  66.3306873  22.8473088  22.0554751
  67.5378129  22.5623188  22.9235222  62.5275177  24.8167500  18.9331107
  61.9640042  24.7257437  18.1647395  62.4127572  23.9967404  19.4133599
  67.1508144  24.1166875  28.9020421  67.1396785  23.7219673  28.0300925
  67.3128784  23.3832948  29.4954193  60.0739609  26.3118691  21.7715327
  60.8660901  25.9709516  21.3561627  60.3136259  26.4213666  22.6917481
  68.1074736  28.4838467  14.2445572  67.4562715  29.0692548  13.8579585
  68.9019098  29.0144662  14.3040609  62.0330363  25.5727605  14.6432706
  62.8061239  25.0256592  14.5045582  62.3855762  26.4371854  14.8547167
  63.8715405  26.9003987  27.8499605  63.5805271  27.8049618  27.7346272
  64.5072390  26.9420514  28.5643675  64.7971612  24.2780835  24.4400965
  65.3935184  24.0536858  23.7257928  64.8546584  23.5365581  25.0426413
  64.3696640  21.7320271  12.2751156  64.6222161  21.2101792  11.5134619
  63.4321200  21.5686416  12.3777840  69.4139923  20.7356049  20.0825899
  70.2003013  20.3175472  19.7316316  69.6778628  21.6402141  20.2507548
  69.5850001  26.1728899  14.7814556  68.9495834  26.2463526  15.4935461
  69.2547407  26.7622498  14.1033635  74.8148350  20.6731282  20.9858878
  75.5473522  20.1030499  21.2196707  74.0587706  20.2852883  21.4265383
  64.0892929  23.6348377  14.4775531  63.9729187  22.9593280  15.1456615
  64.1995189  23.1480751  13.6607684  66.4324470  23.0958524  18.1822220
  66.0682677  22.5689145  18.8935142  67.2891586  22.7056993  18.0088706
  72.3373771  14.3852856  25.4453486  72.0057096  15.2548267  25.2214701
  71.7419384  14.0689140  26.1247517  66.0729957  18.1248423  13.1783569
  66.2404359  18.9928660  13.5454040  65.8827126  18.2875705  12.2544858
  68.8305290  26.5865402  24.8449399  68.5306013  27.4890441  24.7365206
  68.4856350  26.3197586  25.6970552  62.2817772  23.0379199  20.8786103
  61.3568268  22.9055413  21.0863795  62.5302185  23.8173418  21.3756046
  72.2302434  19.1047943  22.5246836  71.3219311  19.0363351  22.2305597
  72.1790030  19.5819888  23.3528662  66.0519178  20.5806081  14.1630235
  65.9318803  21.0263132  15.0015716  65.3571766  20.9291399  13.6043774
  59.6426583  22.6812473  21.7129893  59.7718964  22.9346952  22.6269304
  58.9624034  23.2740181  21.3934548  63.8126070  33.3509723  17.8120367
  63.7350100  34.3017548  17.8908847  63.2087714  33.0055595  18.4695293
  66.3043300  20.5237588  30.4681734  65.5276634  21.0831508  30.4584598
  66.9433863  21.0094371  30.9896604  74.0964081  17.3064381  24.3024710
  73.4538461  17.5996914  23.6564505  73.5919009  17.1917301  25.1077907
  71.7504244  21.0527554  14.9910570  72.6622100  21.2854941  14.8158267
  71.2413891  21.6364598  14.4285648  64.5589672  23.3323042  30.0299701
  65.3004357  23.8708085  29.7534524  63.8526658  23.9589330  30.1871252
  70.0345012  25.4752182  28.6271862  70.4428368  25.0334593  27.8826494
  69.3122273  24.9004809  28.8806055  66.3876082  20.4124789  26.0005419
  67.2337277  20.8364202  26.1440068  66.3274720  19.7558413  26.6943982
  70.3573826  26.0353373  22.3824151  69.7282689  26.1999087  21.6800219
  69.9699489  26.4494982  23.1535115  74.2363058  26.9707810  19.7368515
  73.5514097  27.3506712  19.1865548  74.3206908  27.5803137  20.4700462
  69.5375527  18.0729157  27.6586593  69.2936459  18.8271218  27.1220868
  69.8135458  18.4514505  28.4933840  71.4913990  24.6167769  26.3363858
  71.7030885  25.2599529  25.6598239  71.4443738  23.7830086  25.8685788
  69.0940219  17.2285590  23.2400430  68.2324698  17.5266844  23.5317168
  69.1202654  17.4455989  22.3081463  65.9101788  25.7727781  19.6474236
  66.3740134  26.0515484  18.8578859  65.6458586  24.8711225  19.4647327
  62.8025869  25.3199262  22.5853999  63.3727226  25.7486531  21.9471484
  63.3933981  25.0381847  23.2838185  64.8470674  21.8950933  16.4563801
  65.5494718  22.3471977  16.9237728  64.5151303  21.2534752  17.0843694
  63.2951036  20.4862690  30.8315011  62.6649697  21.1678971  31.0650407
  63.1887124  20.3745771  29.8868149  58.5896008  20.1534486  21.7580935
  57.7995062  20.4092014  21.2821045  59.0807256  20.9682824  21.8632975
  72.6059818  27.4939725  24.5086216  73.4277262  27.0919912  24.2268897
  72.6022221  27.3907959  25.4602331  60.5410754  20.5179065  18.7164411
  59.7441917  20.6297759  19.2347907  60.3136346  20.8565717  17.8505302
  66.3716421  27.0423768  26.6646926  66.4360854  27.5044175  27.5005098
  65.6627345  26.4121133  26.7929236  56.8733711  20.4064976  24.1895926
  57.1241750  21.2911986  24.4553502  57.4093260  20.2269578  23.4171017
  80.6965811  23.8378473  20.8571187  79.9429519  23.2685871  20.7015192
  80.8313352  23.8041138  21.8041822  66.0864439  28.7091876  16.5325906
  65.9510114  29.5543411  16.9610754  66.6274252  28.9111153  15.7691840
  62.5731779  14.7883456  33.1940262  62.1798724  14.2349654  33.8687906
  63.3897919  15.0994034  33.5846779  59.5393836  26.2267314  17.1053832
  60.0518357  27.0210564  17.2559396  60.1916549  25.5293604  17.0387433
  61.3488721  29.3433070  19.1876585  61.5255349  30.2651035  18.9997569
  62.1445555  29.0291489  19.6170964  65.4899740  16.2041335  30.7860518
  66.2309453  16.8048488  30.7064981  65.7217662  15.4618972  30.2278561
  60.6341078  21.3897702  29.0638748  60.5194593  20.4882959  29.3645847
  59.7785595  21.6361399  28.7123564  62.4720037  30.8611244  25.1886927
  63.0227462  30.7328307  24.4163921  61.6331512  31.1606133  24.8381820
  66.2687208  27.1262372  29.5331158  66.8015544  26.3650660  29.3030466
  65.7401289  26.8336023  30.2755313  69.4356903  12.2322438  25.0624800
  69.0921172  13.1224079  24.9863910  69.8035865  12.0424095  24.1994385
  57.5042753  24.5555968  17.8813402  58.3417975  24.9652976  17.6647110
  57.6821021  23.6155410  17.8513596  69.4007185  22.2231049  13.5697235
  68.8853809  22.9935653  13.8085622  69.1284494  21.5496185  14.1930296
  66.9854296  17.0680749  18.6282473  66.1295893  16.6787600  18.4488112
  67.3981248  17.1472710  17.7682259  68.5153443  14.6027093  23.0274033
  68.0118239  14.5657228  22.2141838  68.8084050  15.5119835  23.0870690
  64.7596329  14.6865822  22.0340215  65.6249326  14.4908631  21.6746104
  64.8273838  14.4576174  22.9609572  74.3741459  24.9763403  15.5050408
  73.5970902  24.6374563  15.0605571  75.0532940  24.9816026  14.8305374
  69.1893488  20.0958141  15.3957016  68.8843624  20.4104290  16.2467159
  70.1423931  20.1739561  15.4384349  67.6339920  26.2548364  17.0449970
  67.1061282  25.5201124  16.7323208  67.1327423  27.0323040  16.7989938
  72.6132766  24.4497385  22.1617016  71.9556441  25.1396646  22.2497145
  73.4173166  24.8393817  22.5051003  62.3658648  16.9168030  19.4056582
  62.9402400  16.6943212  18.6729775  62.9529630  16.9856725  20.1585183
  71.4238225  22.8041757  20.2120958  71.9370107  23.4371749  20.7142668
  72.0739449  22.2042953  19.8464318  62.6928235  18.9472491  13.4252467
  61.8565547  19.2847178  13.7461742  62.5533005  18.8121471  12.4879604
  64.6681316  13.7909279  18.1331651  64.0145728  13.4758296  17.5088266
  64.6261790  13.1685020  18.8591474  65.7792521  24.0728574  10.0484943
  64.8719582  23.8417828  10.2476092  66.2763552  23.2766194  10.2358925
  68.6860599  32.7826082  12.9681629  68.0122298  33.0857778  13.5766587
  69.0726421  33.5855162  12.6187086  67.9019056  20.2791213  22.4579299
  66.9841617  20.5006160  22.3000987  68.3179200  20.3537523  21.5991006
  68.6854104  21.6782628  17.5881979  69.4325923  22.1904026  17.2789101
  68.9545693  21.3566681  18.4486373  66.9580754  24.1741169  14.5708933
  66.0491973  23.8900202  14.6681403  66.9875838  24.5940248  13.7112240
  72.1900021  27.7847759  18.3400101  71.7362348  26.9438669  18.3965291
  71.5593988  28.4209157  18.6774881  71.1332941  18.7139745  19.5700768
  70.3955698  18.2017131  19.9011011  71.3859714  18.2740126  18.7584045
  70.6332961  29.6224255  19.2749919  70.9255935  30.1829313  18.5562285
  71.1431581  29.9152816  20.0303078  71.2344568  11.4915997  20.1642538
  71.5403445  10.6313360  19.8768453  71.9597173  12.0833617  19.9641531
  57.5268924  21.8946683  18.5524135  57.3293324  21.3016044  17.8275202
  56.9715588  21.5898894  19.2700074  65.5065648  21.7869790  20.6718729
  65.5614258  20.8343626  20.5961205  64.6956850  21.9429229  21.1560027
  66.6556842  25.7149913  11.9097012  66.2176272  24.9985772  11.4502649
  67.3967283  25.9426028  11.3482103  63.4458008  20.4046850  18.4309108
  62.6325873  20.7041020  18.8374300  63.9417002  20.0102538  19.1483590
  65.5966586  30.4004606  20.3643372  65.5542765  30.6265453  19.4351904
  66.5129285  30.1667981  20.5129173  69.0432220  20.8688674  27.2624001
  69.3981607  21.0960147  28.1218467  69.6904351  21.2007051  26.6401257
  74.7729957  23.9907110  17.9673330  74.6347855  24.1808706  17.0394520
  74.4166175  24.7526493  18.4241382  62.9372083  17.9765205  24.0470342
  63.5771462  17.8353964  23.3493306  62.1049613  17.6899718  23.6708944
  74.7999336  26.0583637  22.9784602  75.2335843  25.9658926  23.8267656
  75.5130917  26.0341137  22.3404618  63.7132387  27.2767636  20.1605335
  64.5072985  26.7817956  19.9587910  63.0024079  26.7485499  19.7973040
  68.5327231  29.6585731  24.5117703  68.5864253  30.2276667  25.2795418
  67.6642012  29.8287616  24.1471740  60.0215150  21.4210717  16.2365088
  59.0912738  21.3595173  16.4535050  60.1172622  20.8986670  15.4401729
  59.9400699  17.9465530  18.8243329  60.2007516  18.8610863  18.7152490
  60.7617871  17.4789973  18.9739942  61.4125624  19.3603287  25.9942154
  62.0848678  19.1520649  25.3454803  60.5855411  19.1625373  25.5547386
  75.6614886  26.1007338  25.5117487  75.8550776  27.0053148  25.7576762
  75.5615504  25.6414757  26.3456072  67.3151196  15.9865228  28.0107815
  66.6679111  16.6855178  27.9172291  68.0852212  16.4201372  28.3784063
  70.7229994  26.2514080  31.0858368  70.5715501  26.0224632  30.1688452
  70.7134674  27.2084682  31.0989713  67.4915331  23.8245993  26.0704634
  68.4207391  23.9757153  25.8973602  67.0706361  23.9130014  25.2153281
  66.2903663  27.8496657  23.8403172  66.1514748  27.4815442  24.7129110
  65.5018259  28.3644297  23.6687130  66.8851815  32.9505754  15.1828709
  67.0603570  32.4793797  15.9974331  66.1984603  33.5771520  15.4109969
  67.8408878  27.2278260  21.2292010  67.5058710  27.1879030  22.1249660
  67.3412823  26.5622976  20.7562420  61.8153122  22.6345890  26.7544591
  61.6772920  21.9026129  27.3556130  62.7258045  22.5454790  26.4728779
  70.7768069  24.5734295  11.5029069  70.1597240  23.8481123  11.4062122
  70.3084558  25.3343655  11.1596144  64.4435422  22.3465850  26.2428271
  65.1535041  21.7059042  26.2014889  64.4004730  22.5978744  27.1654451
  72.4322201  29.2833203  29.1634850  72.3734747  28.5992423  28.4965433
  72.8341719  30.0252193  28.7115476  63.1564356  19.3331067  28.0623910
  62.6201713  18.8821806  28.7145506  62.5681065  19.4676976  27.3194374
  61.4512900  36.0995117  21.9568569  61.6909498  36.7313641  22.6347587
  60.6082096  35.7483157  22.2433928  72.4339608  27.2472787  27.3948829
  71.5466387  26.9098709  27.5175228  73.0038159  26.5155818  27.6317595
  54.0868755  23.5796879  20.7191881  54.7739795  23.2658609  20.1312896
  53.9316884  24.4838243  20.4459132  58.8903478  18.4687075  25.1476905
  58.8061666  17.8612745  24.4127315  58.0686184  18.9596093  25.1486401
  65.9640762  31.9074239  24.3610073  65.8910933  32.7129211  24.8729377
  65.5218155  32.1066205  23.5358094  65.7530541  31.1446009  17.8712894
  64.9698063  31.6867689  17.9651119  66.4523286  31.6619989  18.2707135
  69.0627191  16.9540639  20.5147100  69.5595891  16.2010601  20.1948170
  68.2914173  16.9904955  19.9490309  76.9156949  22.6581004  22.1565391
  76.9046825  23.5405720  21.7859324  76.0474328  22.3052555  21.9619928
  68.4239445  31.8061073  26.5168231  69.1367417  32.4408538  26.4444133
  67.9329474  31.9024939  25.7008233  70.1456972  25.7112326  18.0885523
  69.2113251  25.8313788  17.9190227  70.3233641  24.8084793  17.8245533
  65.6462160  19.0958022  20.2418784  65.2759948  18.5429062  20.9299690
  66.1421253  18.4916155  19.6893784  73.5329523  21.5529645  18.6235557
  73.9989976  22.3857637  18.5495860  73.9837024  21.0874627  19.3280816
  63.4751359  29.5555517  27.3373802  64.1760818  30.1892000  27.4903196
  63.0046474  29.8970248  26.5769441  71.6005755  27.8973466  15.6221709
  71.8765598  27.7830061  16.5315583  70.7310253  27.4990951  15.5833882
  71.5046186  13.9210232  22.6626458  70.5909266  14.1514459  22.8308665
  71.9339288  14.0048676  23.5140491  71.2752645  22.1100124  25.1626353
  70.6224095  22.3576032  24.5078805  71.6533025  21.2964262  24.8288830
  68.2359819  32.1459817  19.2654523  68.4182213  31.3281473  19.7282275
  69.0592805  32.3627510  18.8279413  68.5701984  31.0728002  16.5269571
  69.0989751  30.5620457  15.9139733  68.8330204  30.7570533  17.3915104
  67.3240218  22.8519935  31.6492390  66.6480855  22.7514065  32.3194765
  68.1467852  22.6959149  32.1128387  59.0719077  29.0891872  24.2704905
  59.6572514  28.3435560  24.4032809  58.8743915  29.3995828  25.1541569
  61.9257732  32.1243119  19.2867347  61.2568107  32.6089247  18.8031387
  61.7870602  32.3712340  20.2010726  53.6636732  21.6597472  22.9909348
  53.7020831  21.1261063  23.7846466  53.1577024  21.1332677  22.3720325
  66.0663001  34.1586863  25.8850006  66.6181309  34.3218484  26.6499091
  66.4069194  34.7491300  25.2130030  61.0427494  16.5062012  26.4871890
  61.1068820  17.3676843  26.0749288  60.9794614  15.8936014  25.7544249
  60.5179766  18.5785145  30.1344925  61.1451805  18.1962222  30.7482449
  59.6607685  18.3599347  30.5000617  57.2945309  20.3861574  16.0663279
  57.5898750  19.4772252  16.0130333  56.3933345  20.3649314  15.7444282
  69.2031388  32.1068838  22.8713688  69.0782527  31.3058578  22.3624633
  69.8610479  32.6015032  22.3827658  60.8239556  18.4617571  22.0490828
  60.1026142  19.0753538  21.9098301  61.6132812  18.9975335  21.9707474
  71.2666296  29.9077858  24.4993238  70.3196632  29.7883209  24.4271565
  71.6149069  29.0200356  24.5819499  63.6265870  15.7971997  28.3231480
  64.1500271  16.0434294  29.0857789  63.4078203  16.6292032  27.9034617
  59.0233151  18.0675672  16.1902605  58.6945857  17.1873051  16.0077710
  59.3772521  18.0123340  17.0778994  68.2712730  29.7030574  20.6997590
  68.1237692  28.7747282  20.8805160  69.0966223  29.7250665  20.2154665
  62.1374974  18.3548642  16.5578082  62.4771046  18.8834563  15.8356691
  62.5847094  18.6929048  17.3336649  71.8746851  30.5259133  21.7862463
  72.7993399  30.3201995  21.6486914  71.7062155  30.2775534  22.6951804
  64.8318415  16.7385692  26.0081150  64.4915235  15.9393505  26.4101830
  64.1257421  17.0387403  25.4357983  65.4834886  13.8235005  24.4608473
  66.3060956  13.3495483  24.3387364  65.7272950  14.6025488  24.9607160
  64.1243121  16.8523263  14.7571375  64.8451483  17.2304516  14.2535092
  63.5008425  17.5712140  14.8606353  68.2674244  17.5568412  15.6929707
  68.4837858  18.4393050  15.3918535  67.7868311  17.1654626  14.9635349
  63.0073465  20.5154125  22.2700452  62.8618046  20.8294428  23.1624733
  62.5298669  21.1339026  21.7171351  64.8669848  17.5056673  22.3181341
  64.8531417  16.6097767  21.9813639  65.5842276  17.5127337  22.9519628
  66.7195979  17.9394014  24.3634469  66.4613757  18.8611084  24.3618799
  66.1881019  17.5424448  25.0534933  71.6642168  31.0444801  17.1424554
  71.8379045  30.4791223  16.3898407  72.1571059  31.8445696  16.9604044
  57.4819127  23.0559470  25.2088113  56.9372595  23.8319278  25.3408387
  58.3598477  23.4030274  25.0507235  64.2706744  16.3871054  17.5868912
  64.3922655  15.4587700  17.7859799  63.9808786  16.4009740  16.6747227
  67.1397934  14.0725964  20.7235631  67.1619631  14.1365297  19.7687611
  67.5565993  13.2330473  20.9176138  77.5181559  23.8081224  18.7614854
  77.9612705  23.0588549  18.3633977  76.6408069  23.7991360  18.3788586
  72.6517340  30.3611565  14.2421453  73.3468245  30.9818258  14.4608767
  72.9940490  29.5106916  14.5173830  58.2685149  22.1829366  28.1018270
  57.5266885  22.3312001  28.6882900  57.9477894  22.4437632  27.2385019
  74.5508763  27.8111271  15.7708783  75.0760087  28.1498543  15.0458103
  74.4631116  26.8758286  15.5871918  66.2349424  33.8783254  20.1304037
  65.7954414  33.3859633  20.8236893  66.9857541  33.3356222  19.8896112
  58.7141763  30.0694795  20.1328665  59.5399783  29.7698567  19.7527308
  58.3635815  29.3002417  20.5818453  63.6823296  29.4221263  22.2026338
  63.0603305  28.7591968  21.9028566  64.3528163  29.4482395  21.5199986
  56.9150368  27.9881121  21.0917598  56.0782276  27.5603296  20.9101599
  56.8874013  28.1813565  22.0288389  63.7547824  17.9003051  31.7958844
  63.8035979  18.7765174  31.4136614  64.2970338  17.3580444  31.2230487
  74.2402669  28.4444174  31.0759981  73.4498213  28.4268313  30.5364481
  74.0036024  28.9832468  31.8309018  74.3600544  25.2936641  28.3892710
  74.4098549  25.1286648  29.3308233  74.2514468  24.4263900  27.9990591
  63.2436803  27.9725186  15.6784799  63.3924923  28.6560651  15.0251471
  64.0503246  27.9530276  16.1934254  71.6504307  21.2767569  29.7052017
  72.5514169  21.1374033  29.4136014  71.7252281  21.4422023  30.6450194
  65.9847112  18.6534423  28.5505203  65.1150421  18.9467989  28.2787791
  66.2206592  19.2374868  29.2712466  75.8618741  27.7133582  28.6334731
  75.5703549  28.0763563  29.4698192  75.2490872  27.0000590  28.4548063
  77.0614423  25.2786462  21.1537302  77.8961315  25.7176266  21.3174862
  77.1973552  24.8025115  20.3345547  74.1105929  22.8366197  27.1014789
  74.5860051  23.0293843  26.2933641  73.1871495  22.8925383  26.8558173
  60.9989436  23.9990364  16.6845868  60.7535478  23.0952694  16.8826078
  61.1685351  24.0007514  15.7425346  68.6886146  14.8714040  26.0670623
  69.2068090  15.6075067  25.7417112  68.3341279  15.1778034  26.9017382
  60.2685084  19.7318721  14.1832029  59.5754328  19.8063076  13.5272065
  60.0236835  18.9679065  14.7053546  68.9398740  11.2914323  21.5871520
  69.2200494  10.6237512  22.2131946  69.7249347  11.4843418  21.0746184
  66.7432209  30.4673317  13.1496546  66.1706176  31.0863504  12.6967018
  67.3165002  31.0172678  13.6836468  72.8107598  19.7131957  25.3343095
  73.7625021  19.8130054  25.3555319  72.6411049  18.9210225  25.8441179
  70.8321978  16.7987540  25.5202496  70.2371910  17.0792553  24.8248985
  70.5471675  17.2881441  26.2919237  69.9629468  30.7510467  14.2805128
  70.8960142  30.6856029  14.4838004  69.8752681  31.5866734  13.8219661
  72.5917485  30.0676337  11.2409076  72.5131117  29.7336201  12.1344834
  73.4127152  30.5598105  11.2400548  75.2895676  22.9338077  24.4485395
  75.2571996  21.9954077  24.6345078  75.8996300  23.0122113  23.7151219
  67.1279007  21.8034129  10.4912599  68.0738112  21.6740338  10.5601017
  66.7493252  21.0648791  10.9682027  75.4390165  19.7249120  24.4943678
  74.9229213  18.9407577  24.3073607  76.3230113  19.3967837  24.6590197
  73.1000892  13.4690136  20.4539490  72.9025713  13.1605224  21.3382822
  73.7100597  14.1951774  20.5837420  81.1072226  23.9954083  23.5891431
  81.8375615  23.7339371  24.1499135  80.4979172  23.2582805  23.6293499
  79.1887523  22.1361946  24.1865883  78.4620687  22.0017911  23.5782374
  78.7734810  22.4438775  24.9922601  67.0117700  25.8551876  31.9513256
  67.9320709  26.0330475  32.1453302  66.9767283  24.9107921  31.7992955
  65.3121924  19.7284106  10.4267484  64.4053380  19.4317219  10.5030197
  65.5897905  19.4313924   9.5601770  56.2299865  21.0490469  20.8766530
  55.9102649  20.1955777  20.5840904  55.6833293  21.2639047  21.6324498
  60.0079772  23.7652910  24.5936037  60.2265782  24.6970018  24.6124071
  60.4205546  23.4060885  25.3790841  66.9283990  14.2720996  16.5811725
  66.1184718  13.9268081  16.9566971  67.6168407  13.9628539  17.1699337
  68.8574538  13.3499042  18.2036022  69.4105577  13.7694496  18.8626045
  69.0944625  12.4234791  18.2458978  64.8807637  19.3386116  33.9838786
  64.7804364  20.2880473  33.9150877  64.6629180  19.0104355  33.1114856
  56.0988125  24.6693381  22.8459652  55.4051596  24.2547334  22.3329606
  56.8461116  24.7113917  22.2493071  72.2353345  15.4599568  17.7114686
  71.6552014  16.1184372  17.3292738  71.9689278  14.6376912  17.3002104
  70.6856912  14.8604625  19.9136006  71.1856690  14.9721160  19.1050325
  71.3292520  14.5565678  20.5536815  64.7438908  22.7683255  32.8003847
  64.2605989  23.5683615  33.0067736  64.8299847  22.7791200  31.8471291
  58.0124867  24.6011635  20.7225667  57.9895555  24.6999322  19.7707550
  58.3225504  25.4476785  21.0442833  60.6712245  26.6587790  24.8372281
  61.6255499  26.6271732  24.7702213  60.4724769  26.1978413  25.6522507
  61.2611627  25.2288906  27.4043079  62.0804516  25.7232984  27.4277916
  61.5348435  24.3120874  27.3760646  71.0178223  17.6199658  16.7671034
  70.1304078  17.9049309  16.5491229  71.4332212  17.4593421  15.9198311
  74.3692759  17.6446179  20.4825374  75.1453150  18.1342631  20.7549990
  73.6440894  18.0704233  20.9397243  76.8065318  18.3573798  21.5399314
  77.4009809  18.1169534  20.8292622  76.8791902  17.6380929  22.1672850
  59.0262474  32.2007409  21.8542479  58.8916942  31.4407810  21.2880477
  58.6094536  32.9248309  21.3871268  70.1621437  27.3844333  10.8619054
  70.8657287  27.5894335  11.4776710  69.4384086  27.9521094  11.1268138
  70.9919247  23.1354194  16.9821324  70.9354448  23.5922745  16.1428957
  71.5447590  22.3744878  16.8044167  74.8024053  18.9243926  17.8071444
  74.5460987  18.5240561  18.6379652  74.1776921  19.6387720  17.6821583
  79.1136391  21.6639999  20.3142735  78.5535949  21.7333188  21.0874297
  78.5079894  21.4880984  19.5942232  62.1831600  33.0976726  22.0660922
  62.0663984  34.0422159  21.9639612  61.3624046  32.7950288  22.4546721
  72.0708134  27.8226862  12.9117514  72.9053738  27.3908060  12.7294989
  71.9092477  27.6508875  13.8394409  71.7254026  24.3258975  14.2773854
  71.6702830  24.1603247  13.3362298  71.1000082  25.0335008  14.4336043
  56.5146541  19.5627039  28.1035276  57.1605405  19.0525993  28.5922501
  56.3063692  20.2995721  28.6778701  69.0399934  26.6307887  33.6027416
  69.9091093  26.8048539  33.2414051  68.5606685  27.4502304  33.4803146
  65.0350152  13.8267084  13.8559172  65.0228822  14.7708924  14.0127443
  65.9273574  13.6437230  13.5618633  63.2086114  33.7504988  25.2816850
  64.1113361  33.7828598  25.5983345  62.9823484  32.8205439  25.2963186
  64.9639716  32.5035975  21.9426929  64.0135347  32.5037836  21.8291301
  65.2672202  31.7568709  21.4262963  68.8502271  10.4209861  18.1105109
  68.0834667   9.8668347  18.2561791  69.2612976  10.4931730  18.9719260
  60.8544032  16.7094657  32.2010290  61.7175494  16.3531461  32.4113615
  60.2809443  16.3708551  32.8885694  73.3668931  40.1459417  18.9331107
  72.8033796  40.0549354  18.1647395  73.2521326  39.3259322  19.4133599
  70.9133363  41.6410609  21.7715327  71.7054655  41.3001434  21.3561627
  71.1530013  41.7505584  22.6917481  78.9468490  43.8130385  14.2445572
  78.2956470  44.3984466  13.8579585  79.7412853  44.3436580  14.3040609
  72.8724117  40.9019522  14.6432706  73.6454993  40.3548509  14.5045582
  73.2249516  41.7663772  14.8547167  75.2090395  37.0612188  12.2751156
  75.4615916  36.5393710  11.5134619  74.2714954  36.8978334  12.3777840
  80.2533678  36.0647967  20.0825899  81.0396767  35.6467390  19.7316316
  80.5172382  36.9694059  20.2507548  80.4243755  41.5020817  14.7814556
  79.7889588  41.5755444  15.4935461  80.0941162  42.0914416  14.1033635
  85.6542105  36.0023200  20.9858878  86.3867277  35.4322417  21.2196707
  84.8981461  35.6144800  21.4265383  74.9286684  38.9640294  14.4775531
  74.8122942  38.2885198  15.1456615  75.0388944  38.4772668  13.6607684
  77.2718225  38.4250441  18.1822220  76.9076432  37.8981062  18.8935142
  78.1285341  38.0348911  18.0088706  83.1767525  29.7144774  25.4453486
  82.8450850  30.5840185  25.2214701  82.5813139  29.3981058  26.1247517
  76.9123712  33.4540341  13.1783569  77.0798114  34.3220578  13.5454040
  76.7220881  33.6167623  12.2544858  73.1211526  38.3671117  20.8786103
  72.1962023  38.2347331  21.0863795  73.3695939  39.1465336  21.3756046
  83.0696189  34.4339860  22.5246836  82.1613066  34.3655269  22.2305597
  83.0183784  34.9111805  23.3528662  76.8912932  35.9097999  14.1630235
  76.7712558  36.3555049  15.0015716  76.1965521  36.2583316  13.6043774
  70.4820337  38.0104390  21.7129893  70.6112718  38.2638869  22.6269304
  69.8017789  38.6032098  21.3934548  74.6519825  48.6801640  17.8120367
  74.5743854  49.6309465  17.8908847  74.0481468  48.3347513  18.4695293
  84.9357835  32.6356299  24.3024710  84.2932215  32.9288832  23.6564505
  84.4312764  32.5209219  25.1077907  82.5897999  36.3819472  14.9910570
  83.5015855  36.6146859  14.8158267  82.0807646  36.9656516  14.4285648
  85.0756813  42.2999728  19.7368515  84.3907851  42.6798629  19.1865548
  85.1600662  42.9095055  20.4700462  79.9333973  32.5577508  23.2400430
  79.0718452  32.8558761  23.5317168  79.9596408  32.7747907  22.3081463
  76.7495543  41.1019698  19.6474236  77.2133888  41.3807401  18.8578859
  76.4852341  40.2003143  19.4647327  73.6419624  40.6491180  22.5853999
  74.2120981  41.0778448  21.9471484  74.2327736  40.3673765  23.2838185
  75.6864429  37.2242851  16.4563801  76.3888472  37.6763894  16.9237728
  75.3545057  36.5826670  17.0843694  69.4289763  35.4826403  21.7580935
  68.6388817  35.7383932  21.2821045  69.9201010  36.2974741  21.8632975
  71.3804508  35.8470983  18.7164411  70.5835672  35.9589677  19.2347907
  71.1530100  36.1857635  17.8505302  67.7127466  35.7356894  24.1895926
  67.9635504  36.6203904  24.4553502  68.2487014  35.5561495  23.4171017
  91.5359565  39.1670391  20.8571187  90.7823274  38.5977789  20.7015192
  91.6707107  39.1333056  21.8041822  76.9258194  44.0383793  16.5325906
  76.7903868  44.8835329  16.9610754  77.4668006  44.2403071  15.7691840
  70.3787591  41.5559231  17.1053832  70.8912111  42.3502482  17.2559396
  71.0310304  40.8585522  17.0387433  72.1882476  44.6724988  19.1876585
  72.3649104  45.5942952  18.9997569  72.9839309  44.3583407  19.6170964
  80.2750657  27.5614355  25.0624800  79.9314926  28.4515997  24.9863910
  80.6429620  27.3716013  24.1994385  68.3436508  39.8847886  17.8813402
  69.1811730  40.2944894  17.6647110  68.5214775  38.9447328  17.8513596
  80.2400940  37.5522966  13.5697235  79.7247563  38.3227571  13.8085622
  79.9678248  36.8788103  14.1930296  77.8248051  32.3972667  18.6282473
  76.9689647  32.0079518  18.4488112  78.2375003  32.4764628  17.7682259
  79.3547197  29.9319010  23.0274033  78.8511993  29.8949146  22.2141838
  79.6477804  30.8411753  23.0870690  75.5990083  30.0157740  22.0340215
  76.4643080  29.8200549  21.6746104  75.6667592  29.7868092  22.9609572
  85.2135214  40.3055321  15.5050408  84.4364657  39.9666480  15.0605571
  85.8926695  40.3107944  14.8305374  80.0287243  35.4250058  15.3957016
  79.7237379  35.7396208  16.2467159  80.9817685  35.5031478  15.4384349
  78.4733675  41.5840282  17.0449970  77.9455036  40.8493041  16.7323208
  77.9721178  42.3614958  16.7989938  73.2052402  32.2459948  19.4056582
  73.7796154  32.0235130  18.6729775  73.7923385  32.3148643  20.1585183
  73.5321990  34.2764409  13.4252467  72.6959302  34.6139096  13.7461742
  73.3926759  34.1413389  12.4879604  75.5075070  29.1201197  18.1331651
  74.8539482  28.8050214  17.5088266  75.4655544  28.4976937  18.8591474
  76.6186275  39.4020492  10.0484943  75.7113337  39.1709745  10.2476092
  77.1157307  38.6058111  10.2358925  79.5254354  48.1117999  12.9681629
  78.8516053  48.4149696  13.5766587  79.9120176  48.9147080  12.6187086
  78.7412810  35.6083130  22.4579299  77.8235372  35.8298077  22.3000987
  79.1572954  35.6829441  21.5991006  79.5247858  37.0074546  17.5881979
  80.2719677  37.5195943  17.2789101  79.7939448  36.6858599  18.4486373
  77.7974508  39.5033087  14.5708933  76.8885728  39.2192120  14.6681403
  77.8269592  39.9232165  13.7112240  83.0293776  43.1139676  18.3400101
  82.5756103  42.2730586  18.3965291  82.3987743  43.7501075  18.6774881
  81.9726695  34.0431662  19.5700768  81.2349452  33.5309049  19.9011011
  82.2253469  33.6032044  18.7584045  81.4726715  44.9516173  19.2749919
  81.7649689  45.5121230  18.5562285  81.9825336  45.2444734  20.0303078
  82.0738323  26.8207914  20.1642538  82.3797200  25.9605278  19.8768453
  82.7990928  27.4125535  19.9641531  68.3662679  37.2238601  18.5524135
  68.1687079  36.6307962  17.8275202  67.8109343  36.9190811  19.2700074
  76.3459402  37.1161707  20.6718729  76.4008012  36.1635544  20.5961205
  75.5350605  37.2721147  21.1560027  77.4950596  41.0441831  11.9097012
  77.0570026  40.3277689  11.4502649  78.2361037  41.2717945  11.3482103
  74.2851762  35.7338767  18.4309108  73.4719628  36.0332938  18.8374300
  74.7810757  35.3394456  19.1483590  76.4360340  45.7296524  20.3643372
  76.3936519  45.9557370  19.4351904  77.3523039  45.4959899  20.5129173
  85.6123711  39.3199028  17.9673330  85.4741610  39.5100624  17.0394520
  85.2559930  40.0818410  18.4241382  74.5526141  42.6059553  20.1605335
  75.3466740  42.1109873  19.9587910  73.8417833  42.0777416  19.7973040
  70.8608905  36.7502635  16.2365088  69.9306493  36.6887090  16.4535050
  70.9566377  36.2278588  15.4401729  70.7794454  33.2757448  18.8243329
  71.0401271  34.1902781  18.7152490  71.6011626  32.8081890  18.9739942
  77.7245569  48.2797672  15.1828709  77.8997325  47.8085715  15.9974331
  77.0378357  48.9063438  15.4109969  78.6802632  42.5570178  21.2292010
  78.3452465  42.5170948  22.1249660  78.1806578  41.8914894  20.7562420
  81.6161824  39.9026212  11.5029069  80.9990994  39.1773040  11.4062122
  81.1478312  40.6635572  11.1596144  72.2906654  51.4287034  21.9568569
  72.5303253  52.0605559  22.6347587  71.4475851  51.0775074  22.2433928
  73.4060370  34.1211637  10.6250374  72.5289836  34.0000437  10.2612620
  73.8818123  33.3297715  10.3729262  64.9262510  38.9088796  20.7191881
  65.6133550  38.5950526  20.1312896  64.7710639  39.8130161  20.4459132
  69.7297232  33.7978993  25.1476905  69.6455421  33.1904662  24.4127315
  68.9079938  34.2888011  25.1486401  76.8034516  47.2366157  24.3610073
  76.7304688  48.0421128  24.8729377  76.3611909  47.4358123  23.5358094
  76.5924296  46.4737927  17.8712894  75.8091818  47.0159607  17.9651119
  77.2917041  46.9911907  18.2707135  79.9020946  32.2832556  20.5147100
  80.3989645  31.5302519  20.1948170  79.1307927  32.3196873  19.9490309
  87.7550703  37.9872922  22.1565391  87.7440580  38.8697637  21.7859324
  86.8868083  37.6344473  21.9619928  80.9850727  41.0404244  18.0885523
  80.0507005  41.1605706  17.9190227  81.1627395  40.1376710  17.8245533
  76.4855915  34.4249939  20.2418784  76.1153702  33.8720980  20.9299690
  76.9815007  33.8208073  19.6893784  84.3723278  36.8821563  18.6235557
  84.8383730  37.7149554  18.5495860  84.8230778  36.4166544  19.3280816
  82.4399509  43.2265384  15.6221709  82.7159353  43.1121979  16.5315583
  81.5704008  42.8282869  15.5833882  82.3439941  29.2502150  22.6626458
  81.4303020  29.4806377  22.8308665  82.7733042  29.3340594  23.5140491
  79.0753573  47.4751735  19.2654523  79.2575968  46.6573391  19.7282275
  79.8986559  47.6919427  18.8279413  79.4095739  46.4019920  16.5269571
  79.9383505  45.8912375  15.9139733  79.6723958  46.0862450  17.3915104
  72.7651487  47.4535037  19.2867347  72.0961862  47.9381164  18.8031387
  72.6264356  47.7004257  20.2010726  64.5030486  36.9889390  22.9909348
  64.5414586  36.4552980  23.7846466  63.9970779  36.4624595  22.3720325
  71.8821248  31.8353930  26.4871890  71.9462575  32.6968761  26.0749288
  71.8188369  31.2227932  25.7544249  68.1339064  35.7153492  16.0663279
  68.4292505  34.8064170  16.0130333  67.2327099  35.6941231  15.7444282
  71.6633311  33.7909488  22.0490828  70.9419896  34.4045456  21.9098301
  72.4526566  34.3267253  21.9707474  69.8626905  33.3967589  16.1902605
  69.5339611  32.5164968  16.0077710  70.2166276  33.3415258  17.0778994
  79.1106484  45.0322492  20.6997590  78.9631446  44.1039200  20.8805160
  79.9359978  45.0542583  20.2154665  72.9768728  33.6840559  16.5578082
  73.3164801  34.2126480  15.8356691  73.4240849  34.0220965  17.3336649
  82.7140606  45.8551051  21.7862463  83.6387153  45.6493912  21.6486914
  82.5455909  45.6067452  22.6951804  76.3228641  29.1526922  24.4608473
  77.1454710  28.6787401  24.3387364  76.5666705  29.9317406  24.9607160
  74.9636875  32.1815181  14.7571375  75.6845238  32.5596434  14.2535092
  74.3402180  32.9004058  14.8606353  79.1067998  32.8860330  15.6929707
  79.3231613  33.7684968  15.3918535  78.6262066  32.4946543  14.9635349
  73.8467220  35.8446043  22.2700452  73.7011800  36.1586346  23.1624733
  73.3692423  36.4630943  21.7171351  75.7063603  32.8348591  22.3181341
  75.6925171  31.9389684  21.9813639  76.4236031  32.8419255  22.9519628
  82.5035922  46.3736718  17.1424554  82.6772800  45.8083141  16.3898407
  82.9964813  47.1737613  16.9604044  75.1100499  31.7162971  17.5868912
  75.2316410  30.7879617  17.7859799  74.8202541  31.7301657  16.6747227
  77.9791689  29.4017882  20.7235631  78.0013386  29.4657215  19.7687611
  78.3959748  28.5622390  20.9176138  88.3575313  39.1373141  18.7614854
  88.8006459  38.3880466  18.3633977  87.4801824  39.1283278  18.3788586
  83.4911095  45.6903483  14.2421453  84.1861999  46.3110175  14.4608767
  83.8334245  44.8398834  14.5173830  85.3902518  43.1403188  15.7708783
  85.9153842  43.4790461  15.0458103  85.3024870  42.2050204  15.5871918
  77.0743178  49.2075172  20.1304037  76.6348169  48.7151550  20.8236893
  77.8251295  48.6648139  19.8896112  69.5535517  45.3986712  20.1328665
  70.3793537  45.0990484  19.7527308  69.2029569  44.6294335  20.5818453
  74.5217051  44.7513181  22.2026338  73.8997060  44.0883886  21.9028566
  75.1921918  44.7774313  21.5199986  67.7544122  43.3173039  21.0917598
  66.9176031  42.8895213  20.9101599  67.7267768  43.5105482  22.0288389
  74.0830558  43.3017104  15.6784799  74.2318678  43.9852568  15.0251471
  74.8897001  43.2822194  16.1934254  87.9008178  40.6078380  21.1537302
  88.7355069  41.0468184  21.3174862  88.0367307  40.1317033  20.3345547
  71.8383191  39.3282282  16.6845868  71.5929232  38.4244612  16.8826078
  72.0079105  39.3299432  15.7425346  79.5279900  30.2005958  26.0670623
  80.0461844  30.9366985  25.7417112  79.1735033  30.5069951  26.9017382
  71.1078838  35.0610639  14.1832029  70.4148083  35.1354994  13.5272065
  70.8630590  34.2970983  14.7053546  79.7792495  26.6206241  21.5871520
  80.0594248  25.9529430  22.2131946  80.5643101  26.8135336  21.0746184
  77.5825963  45.7965234  13.1496546  77.0099930  46.4155422  12.6967018
  78.1558757  46.3464596  13.6836468  80.8023223  46.0802385  14.2805128
  81.7353896  46.0147946  14.4838004  80.7146436  46.9158651  13.8219661
  83.4311240  45.3968255  11.2409076  83.3524871  45.0628118  12.1344834
  84.2520906  45.8890023  11.2400548  77.9672762  37.1326047  10.4912599
  78.9131866  37.0032255  10.5601017  77.5887007  36.3940709  10.9682027
  83.9394646  28.7982053  20.4539490  83.7419467  28.4897141  21.3382822
  84.5494352  29.5243692  20.5837420  91.9465981  39.3246001  23.5891431
  92.6769369  39.0631289  24.1499135  91.3372926  38.5874723  23.6293499
  90.0281278  37.4653864  24.1865883  89.3014441  37.3309829  23.5782374
  89.6128565  37.7730692  24.9922601  76.1515679  35.0576024  10.4267484
  75.2447134  34.7609136  10.5030197  76.4291660  34.7605842   9.5601770
  67.0693619  36.3782387  20.8766530  66.7496403  35.5247695  20.5840904
  66.5227047  36.5930965  21.6324498  77.7677744  29.6012913  16.5811725
  76.9578473  29.2559998  16.9566971  78.4562161  29.2920457  17.1699337
  79.6968293  28.6790960  18.2036022  80.2499331  29.0986413  18.8626045
  79.9338379  27.7526708  18.2458978  74.9214463  31.9162959  10.5679463
  75.7833627  32.2417857  10.8275280  75.1064807  31.1294455  10.0552529
  66.9381879  39.9985298  22.8459652  66.2445351  39.5839251  22.3329606
  67.6854870  40.0405835  22.2493071  83.0747100  30.7891485  17.7114686
  82.4945769  31.4476289  17.3292738  82.8083032  29.9668830  17.3002104
  81.5250666  30.1896543  19.9136006  82.0250445  30.3013077  19.1050325
  82.1686274  29.8857596  20.5536815  68.8518622  39.9303552  20.7225667
  68.8289310  40.0291239  19.7707550  69.1619258  40.7768703  21.0442833
  81.8571978  32.9491576  16.7671034  80.9697833  33.2341226  16.5491229
  82.2725967  32.7885339  15.9198311  85.2086514  32.9738097  20.4825374
  85.9846904  33.4634549  20.7549990  84.4834648  33.3996151  20.9397243
  87.6459073  33.6865716  21.5399314  88.2403563  33.4461452  20.8292622
  87.7185656  32.9672846  22.1672850  69.8656228  47.5299327  21.8542479
  69.7310696  46.7699728  21.2880477  69.4488291  48.2540227  21.3871268
  81.0015191  42.7136250  10.8619054  81.7051041  42.9186253  11.4776710
  80.2777840  43.2813012  11.1268138  81.8313002  38.4646112  16.9821324
  81.7748203  38.9214663  16.1428957  82.3841344  37.7036796  16.8044167
  85.6417807  34.2535843  17.8071444  85.3854742  33.8532479  18.6379652
  85.0170676  34.9679637  17.6821583  89.9530145  36.9931917  20.3142735
  89.3929703  37.0625106  21.0874297  89.3473649  36.8172901  19.5942232
  73.0225354  48.4268644  22.0660922  72.9057738  49.3714076  21.9639612
  72.2017800  48.1242205  22.4546721  82.9101889  43.1518779  12.9117514
  83.7447493  42.7199978  12.7294989  82.7486232  42.9800793  13.8394409
  82.5647781  39.6550893  14.2773854  82.5096585  39.4895164  13.3362298
  81.9393836  40.3626926  14.4336043  75.8743906  29.1559002  13.8559172
  75.8622576  30.1000842  14.0127443  76.7667328  28.9729147  13.5618633
  75.8033470  47.8327892  21.9426929  74.8529101  47.8329754  21.8291301
  76.1065956  47.0860627  21.4262963  79.6896026  25.7501778  18.1105109
  78.9228422  25.1960265  18.2561791  80.1006731  25.8223647  18.9719260
  84.2062686  55.4751335  18.9331107  83.6427551  55.3841272  18.1647395
  84.0915081  54.6551240  19.4133599  81.7527118  56.9702527  21.7715327
  82.5448410  56.6293351  21.3561627  81.9923768  57.0797502  22.6917481
  89.7862244  59.1422303  14.2445572  89.1350224  59.7276383  13.8579585
  90.5806607  59.6728498  14.3040609  83.7117872  56.2311440  14.6432706
  84.4848748  55.6840427  14.5045582  84.0643271  57.0955689  14.8547167
  86.0484149  52.3904106  12.2751156  86.3009670  51.8685627  11.5134619
  85.1108709  52.2270252  12.3777840  91.0927432  51.3939884  20.0825899
  91.8790522  50.9759308  19.7316316  91.3566137  52.2985977  20.2507548
  91.2637510  56.8312735  14.7814556  90.6283343  56.9047361  15.4935461
  90.9334916  57.4206334  14.1033635  96.4935859  51.3315118  20.9858878
  97.2261031  50.7614334  21.2196707  95.7375215  50.9436718  21.4265383
  85.7680438  54.2932212  14.4775531  85.6516696  53.6177115  15.1456615
  85.8782698  53.8064586  13.6607684  88.1111979  53.7542359  18.1822220
  87.7470186  53.2272980  18.8935142  88.9679095  53.3640828  18.0088706
  94.0161280  45.0436692  25.4453486  93.6844605  45.9132103  25.2214701
  93.4206893  44.7272976  26.1247517  87.7517466  48.7832259  13.1783569
  87.9191868  49.6512495  13.5454040  87.5614635  48.9459541  12.2544858
  83.9605281  53.6963035  20.8786103  83.0355777  53.5639249  21.0863795
  84.2089694  54.4757254  21.3756046  93.9089943  49.7631778  22.5246836
  93.0006820  49.6947186  22.2305597  93.8577539  50.2403723  23.3528662
  87.7306687  51.2389916  14.1630235  87.6106312  51.6846967  15.0015716
  87.0359275  51.5875234  13.6043774  81.3214092  53.3396308  21.7129893
  81.4506473  53.5930787  22.6269304  80.6411543  53.9324016  21.3934548
  85.4913579  64.0093558  17.8120367  85.4137609  64.9601383  17.8908847
  84.8875223  63.6639431  18.4695293  95.7751589  47.9648216  24.3024710
  95.1325970  48.2580749  23.6564505  95.2706518  47.8501137  25.1077907
  93.4291753  51.7111390  14.9910570  94.3409609  51.9438776  14.8158267
  92.9201400  52.2948434  14.4285648  95.9150567  57.6291646  19.7368515
  95.2301605  58.0090547  19.1865548  95.9994417  58.2386972  20.4700462
  91.2163036  48.7312992  27.6586593  90.9723968  49.4855053  27.1220868
  91.4922967  49.1098340  28.4933840  90.7727728  47.8869425  23.2400430
  89.9112207  48.1850679  23.5317168  90.7990163  48.1039824  22.3081463
  87.5889297  56.4311616  19.6474236  88.0527643  56.7099319  18.8578859
  87.3246095  55.5295061  19.4647327  86.5258183  52.5534768  16.4563801
  87.2282227  53.0055812  16.9237728  86.1938812  51.9118587  17.0843694
  80.2683517  50.8118321  21.7580935  79.4782571  51.0675850  21.2821045
  80.7594765  51.6266659  21.8632975  82.2198263  51.1762900  18.7164411
  81.4229426  51.2881595  19.2347907  81.9923855  51.5149553  17.8505302
 102.3753320  54.4962309  20.8571187 101.6217028  53.9269707  20.7015192
 102.5100861  54.4624973  21.8041822  87.7651948  59.3675711  16.5325906
  87.6297623  60.2127247  16.9610754  88.3061761  59.5694989  15.7691840
  81.2181345  56.8851149  17.1053832  81.7305866  57.6794399  17.2559396
  81.8704058  56.1877440  17.0387433  83.0276230  60.0016905  19.1876585
  83.2042858  60.9234870  18.9997569  83.8233064  59.6875325  19.6170964
  91.1144412  42.8906273  25.0624800  90.7708681  43.7807915  24.9863910
  91.4823374  42.7007931  24.1994385  79.1830262  55.2139803  17.8813402
  80.0205484  55.6236812  17.6647110  79.3608530  54.2739246  17.8513596
  91.0794694  52.8814884  13.5697235  90.5641318  53.6519489  13.8085622
  90.8072003  52.2080020  14.1930296  88.6641805  47.7264585  18.6282473
  87.8083402  47.3371435  18.4488112  89.0768757  47.8056546  17.7682259
  90.1940952  45.2610928  23.0274033  89.6905748  45.2241063  22.2141838
  90.4871559  46.1703671  23.0870690  86.4383838  45.3449658  22.0340215
  87.3036835  45.1492466  21.6746104  86.5061347  45.1160010  22.9609572
  96.0528968  55.6347239  15.5050408  95.2758411  55.2958398  15.0605571
  96.7320449  55.6399862  14.8305374  90.8680997  50.7541976  15.3957016
  90.5631133  51.0688125  16.2467159  91.8211440  50.8323396  15.4384349
  89.3127429  56.9132199  17.0449970  88.7848791  56.1784959  16.7323208
  88.8114932  57.6906876  16.7989938  94.2920275  55.1081220  22.1617016
  93.6343950  55.7980481  22.2497145  95.0960675  55.4977652  22.5051003
  84.0446157  47.5751866  19.4056582  84.6189909  47.3527047  18.6729775
  84.6317139  47.6440560  20.1585183  93.1025734  53.4625593  20.2120958
  93.6157616  54.0955584  20.7142668  93.7526958  52.8626788  19.8464318
  84.3715744  49.6056327  13.4252467  83.5353056  49.9431013  13.7461742
  84.2320514  49.4705307  12.4879604  86.3468825  44.4493115  18.1331651
  85.6933237  44.1342132  17.5088266  86.3049299  43.8268855  18.8591474
  87.4580029  54.7312410  10.0484943  86.5507091  54.5001663  10.2476092
  87.9551061  53.9350029  10.2358925  90.3648108  63.4409917  12.9681629
  89.6909807  63.7441614  13.5766587  90.7513930  64.2438997  12.6187086
  90.3641613  52.3366464  17.5881979  91.1113432  52.8487861  17.2789101
  90.6333202  52.0150517  18.4486373  88.6368263  54.8325005  14.5708933
  87.7279482  54.5484037  14.6681403  88.6663347  55.2524083  13.7112240
  93.8687530  58.4431594  18.3400101  93.4149857  57.6022504  18.3965291
  93.2381497  59.0792992  18.6774881  92.8120450  49.3723580  19.5700768
  92.0743207  48.8600966  19.9011011  93.0647223  48.9323962  18.7584045
  92.3120470  60.2808091  19.2749919  92.6043444  60.8413148  18.5562285
  92.8219090  60.5736652  20.0303078  92.9132077  42.1499832  20.1642538
  93.2190954  41.2897196  19.8768453  93.6384682  42.7417452  19.9641531
  79.2056433  52.5530519  18.5524135  79.0080833  51.9599879  17.8275202
  78.6503097  52.2482729  19.2700074  88.3344351  56.3733748  11.9097012
  87.8963781  55.6569607  11.4502649  89.0754792  56.6009863  11.3482103
  85.1245517  51.0630685  18.4309108  84.3113382  51.3624855  18.8374300
  85.6204511  50.6686374  19.1483590  87.2754095  61.0588442  20.3643372
  87.2330274  61.2849288  19.4351904  88.1916794  60.8251816  20.5129173
  90.7219729  51.5272509  27.2624001  91.0769116  51.7543983  28.1218467
  91.3691860  51.8590886  26.6401257  96.4517466  54.6490945  17.9673330
  96.3135364  54.8392541  17.0394520  96.0953684  55.4110328  18.4241382
  96.4786845  56.7167472  22.9784602  96.9123352  56.6242761  23.8267656
  97.1918426  56.6924973  22.3404618  85.3919896  57.9351471  20.1605335
  86.1860494  57.4401791  19.9587910  84.6811588  57.4069334  19.7973040
  81.7002659  52.0794553  16.2365088  80.7700247  52.0179008  16.4535050
  81.7960131  51.5570505  15.4401729  81.6188208  48.6049365  18.8243329
  81.8795025  49.5194699  18.7152490  82.4405380  48.1373808  18.9739942
  97.3402395  56.7591173  25.5117487  97.5338285  57.6636983  25.7576762
  97.2403013  56.2998592  26.3456072  88.5639324  63.6089589  15.1828709
  88.7391079  63.1377633  15.9974331  87.8772112  64.2355356  15.4109969
  89.5196387  57.8862096  21.2292010  89.1846219  57.8462866  22.1249660
  89.0200332  57.2206811  20.7562420  92.4555578  55.2318130  11.5029069
  91.8384749  54.5064958  11.4062122  91.9872067  55.9927490  11.1596144
  83.1300409  66.7578952  21.9568569  83.3697007  67.3897476  22.6347587
  82.2869605  66.4066992  22.2433928  84.2454124  49.4503554  10.6250374
  83.3683591  49.3292355  10.2612620  84.7211877  48.6589632  10.3729262
  75.7656264  54.2380714  20.7191881  76.4527304  53.9242444  20.1312896
  75.6104393  55.1422079  20.4459132  87.4318050  61.8029845  17.8712894
  86.6485572  62.3451525  17.9651119  88.1310795  62.3203824  18.2707135
  90.7414700  47.6124474  20.5147100  91.2383400  46.8594436  20.1948170
  89.9701682  47.6488791  19.9490309  98.5944458  53.3164840  22.1565391
  98.5834334  54.1989555  21.7859324  97.7261837  52.9636390  21.9619928
  91.8244481  56.3696161  18.0885523  90.8900760  56.4897624  17.9190227
  92.0021150  55.4668628  17.8245533  95.2117032  52.2113481  18.6235557
  95.6777485  53.0441472  18.5495860  95.6624533  51.7458462  19.3280816
  93.2793264  58.5557302  15.6221709  93.5553107  58.4413896  16.5315583
  92.4097762  58.1574787  15.5833882  93.1833695  44.5794068  22.6626458
  92.2696775  44.8098294  22.8308665  93.6126797  44.6632512  23.5140491
  92.9540154  52.7683959  25.1626353  92.3011604  53.0159867  24.5078805
  93.3320534  51.9548098  24.8288830  89.9147328  62.8043653  19.2654523
  90.0969722  61.9865309  19.7282275  90.7380314  63.0211345  18.8279413
  90.2489493  61.7311838  16.5269571  90.7777259  61.2204292  15.9139733
  90.5117713  61.4154368  17.3915104  83.6045241  62.7826954  19.2867347
  82.9355616  63.2673082  18.8031387  83.4658111  63.0296175  20.2010726
  75.3424241  52.3181307  22.9909348  75.3808340  51.7844898  23.7846466
  74.8364533  51.7916513  22.3720325  78.9732818  51.0445409  16.0663279
  79.2686259  50.1356088  16.0130333  78.0720854  51.0233149  15.7444282
  90.8818897  62.7652674  22.8713688  90.7570036  61.9642413  22.3624633
  91.5397988  63.2598867  22.3827658  82.5027065  49.1201406  22.0490828
  81.7813651  49.7337374  21.9098301  83.2920321  49.6559171  21.9707474
  80.7020660  48.7259507  16.1902605  80.3733366  47.8456886  16.0077710
  81.0560030  48.6707176  17.0778994  89.9500239  60.3614410  20.6997590
  89.8025201  59.4331117  20.8805160  90.7753732  60.3834501  20.2154665
  83.8162483  49.0132477  16.5578082  84.1558555  49.5418398  15.8356691
  84.2634603  49.3512883  17.3336649  93.5534360  61.1842969  21.7862463
  94.4780908  60.9785830  21.6486914  93.3849664  60.9359370  22.6951804
  85.8030630  47.5107098  14.7571375  86.5238992  47.8888351  14.2535092
  85.1795934  48.2295975  14.8606353  89.9461753  48.2152247  15.6929707
  90.1625367  49.0976885  15.3918535  89.4655820  47.8238461  14.9635349
  84.6860974  51.1737961  22.2700452  84.5405555  51.4878264  23.1624733
  84.2086178  51.7922861  21.7171351  86.5457357  48.1640509  22.3181341
  86.5318926  47.2681602  21.9813639  87.2629785  48.1711172  22.9519628
  88.3983488  48.5977849  24.3634469  88.1401266  49.5194920  24.3618799
  87.8668528  48.2008283  25.0534933  93.3429677  61.7028636  17.1424554
  93.5166554  61.1375058  16.3898407  93.8358568  62.5029531  16.9604044
  85.9494253  47.0454889  17.5868912  86.0710164  46.1171535  17.7859799
  85.6596295  47.0593575  16.6747227  88.8185443  44.7309799  20.7235631
  88.8407140  44.7949132  19.7687611  89.2353502  43.8914308  20.9176138
  99.1969068  54.4665059  18.7614854  99.6400214  53.7172384  18.3633977
  98.3195578  54.4575195  18.3788586  94.3304849  61.0195400  14.2421453
  95.0255754  61.6402093  14.4608767  94.6727999  60.1690752  14.5173830
  96.2296272  58.4695106  15.7708783  96.7547596  58.8082379  15.0458103
  96.1418625  57.5342121  15.5871918  87.9136933  64.5367089  20.1304037
  87.4741923  64.0443468  20.8236893  88.6645050  63.9940057  19.8896112
  80.3929272  60.7278630  20.1328665  81.2187292  60.4282402  19.7527308
  80.0423324  59.9586252  20.5818453  78.5937877  58.6464957  21.0917598
  77.7569785  58.2187131  20.9101599  78.5661522  58.8397400  22.0288389
  96.0388053  55.9520476  28.3892710  96.0886058  55.7870483  29.3308233
  95.9301977  55.0847735  27.9990591  84.9224312  58.6309022  15.6784799
  85.0712432  59.3144486  15.0251471  85.7290755  58.6114112  16.1934254
  98.7401932  55.9370297  21.1537302  99.5748824  56.3760101  21.3174862
  98.8761061  55.4608950  20.3345547  95.7893438  53.4950032  27.1014789
  96.2647560  53.6877678  26.2933641  94.8659004  53.5509218  26.8558173
  82.6776945  54.6574199  16.6845868  82.4322987  53.7536529  16.8826078
  82.8472860  54.6591350  15.7425346  90.3673655  45.5297876  26.0670623
  90.8855599  46.2658903  25.7417112  90.0128788  45.8361869  26.9017382
  81.9472593  50.3902557  14.1832029  81.2541837  50.4646912  13.5272065
  81.7024344  49.6262900  14.7053546  90.6186249  41.9498158  21.5871520
  90.8988003  41.2821347  22.2131946  91.4036856  42.1427254  21.0746184
  88.4219718  61.1257152  13.1496546  87.8493685  61.7447339  12.6967018
  88.9952511  61.6756514  13.6836468  94.4895107  50.3715792  25.3343095
  95.4412530  50.4713890  25.3555319  94.3198558  49.5794061  25.8441179
  92.5109487  47.4571375  25.5202496  91.9159419  47.7376388  24.8248985
  92.2259184  47.9465276  26.2919237  91.6416977  61.4094302  14.2805128
  92.5747650  61.3439864  14.4838004  91.5540190  62.2450569  13.8219661
  94.2704994  60.7260173  11.2409076  94.1918626  60.3920036  12.1344834
  95.0914661  61.2181940  11.2400548  96.9683185  53.5921912  24.4485395
  96.9359505  52.6537913  24.6345078  97.5783809  53.6705949  23.7151219
  88.8066516  52.4617965  10.4912599  89.7525621  52.3324173  10.5601017
  88.4280761  51.7232627  10.9682027  97.1177674  50.3832955  24.4943678
  96.6016722  49.5991412  24.3073607  98.0017622  50.0551672  24.6590197
  94.7788401  44.1273971  20.4539490  94.5813222  43.8189059  21.3382822
  95.3888106  44.8535610  20.5837420 102.7859735  54.6537919  23.5891431
 103.5163124  54.3923207  24.1499135 102.1766681  53.9166641  23.6293499
 100.8675032  52.7945781  24.1865883 100.1408196  52.6601746  23.5782374
 100.4522319  53.1022610  24.9922601  86.9909433  50.3867941  10.4267484
  86.0840889  50.0901054  10.5030197  87.2685414  50.0897759   9.5601770
  77.9087374  51.7074305  20.8766530  77.5890158  50.8539613  20.5840904
  77.3620802  51.9222883  21.6324498  88.6071499  44.9304831  16.5811725
  87.7972227  44.5851916  16.9566971  89.2955916  44.6212375  17.1699337
  90.5362047  44.0082878  18.2036022  91.0893086  44.4278331  18.8626045
  90.7732134  43.0818626  18.2458978  85.7608218  47.2454876  10.5679463
  86.6227382  47.5709775  10.8275280  85.9458562  46.4586372  10.0552529
  77.7775634  55.3277216  22.8459652  77.0839105  54.9131169  22.3329606
  78.5248625  55.3697753  22.2493071  93.9140854  46.1183403  17.7114686
  93.3339523  46.7768207  17.3292738  93.6476787  45.2960747  17.3002104
  92.3644421  45.5188461  19.9136006  92.8644199  45.6304995  19.1050325
  93.0080029  45.2149513  20.5536815  79.6912376  55.2595470  20.7225667
  79.6683064  55.3583157  19.7707550  80.0013013  56.1060621  21.0442833
  92.6965732  48.2783493  16.7671034  91.8091587  48.5633144  16.5491229
  93.1119721  48.1177257  15.9198311  96.0480268  48.3030014  20.4825374
  96.8240659  48.7926467  20.7549990  95.3228403  48.7288068  20.9397243
  98.4852827  49.0157633  21.5399314  99.0797318  48.7753369  20.8292622
  98.5579411  48.2964764  22.1672850  80.7049983  62.8591244  21.8542479
  80.5704451  62.0991645  21.2880477  80.2882045  63.5832144  21.3871268
  91.8408946  58.0428168  10.8619054  92.5444796  58.2478170  11.4776710
  91.1171595  58.6104930  11.1268138  92.6706756  53.7938029  16.9821324
  92.6141957  54.2506581  16.1428957  93.2235099  53.0328714  16.8044167
  96.4811562  49.5827761  17.8071444  96.2248496  49.1824397  18.6379652
  95.8564430  50.2971555  17.6821583 100.7923900  52.3223834  20.3142735
 100.2323458  52.3917024  21.0874297 100.1867403  52.1464819  19.5942232
  83.8619109  63.7560561  22.0660922  83.7451493  64.7005994  21.9639612
  83.0411555  63.4534123  22.4546721  93.7495643  58.4810697  12.9117514
  94.5841247  58.0491896  12.7294989  93.5879986  58.3092711  13.8394409
  93.4041535  54.9842810  14.2773854  93.3490339  54.8187082  13.3362298
  92.7787591  55.6918843  14.4336043  86.7137661  44.4850919  13.8559172
  86.7016331  45.4292759  14.0127443  87.6061083  44.3021065  13.5618633
  86.6427225  63.1619810  21.9426929  85.6922856  63.1621671  21.8291301
  86.9459711  62.4152544  21.4262963  90.5289780  41.0793696  18.1105109
  89.7622176  40.5252183  18.2561791  90.9400485  41.1515565  18.9719260
 102.3779918  68.9980348  23.0072691 103.0158328  68.8787096  22.3036031
 102.2600761  69.9461192  23.0660643  99.1869625  68.9507776  22.9434216
  98.8488136  68.8348841  22.0554751 100.0559393  68.5498941  22.9235222
  95.0456440  70.8043253  18.9331107  94.4821305  70.7133190  18.1647395
  94.9308835  69.9843157  19.4133599  99.6689408  70.1042628  28.9020421
  99.6578048  69.7095426  28.0300925  99.8310047  69.3708701  29.4954193
  92.5920872  72.2994444  21.7715327  93.3842164  71.9585269  21.3561627
  92.8317522  72.4089419  22.6917481 100.6255999  74.4714220  14.2445572
  99.9743979  75.0568301  13.8579585 101.4200362  75.0020415  14.3040609
  94.5511626  71.5603358  14.6432706  95.3242502  71.0132345  14.5045582
  94.9037025  72.4247607  14.8547167  96.3896669  72.8879740  27.8499605
  96.0986535  73.7925371  27.7346272  97.0253653  72.9296268  28.5643675
  97.3152876  70.2656588  24.4400965  97.9116448  70.0412611  23.7257928
  97.3727847  69.5241334  25.0426413  96.8877904  67.7196024  12.2751156
  97.1403425  67.1977545  11.5134619  95.9502463  67.5562169  12.3777840
 101.9321187  66.7231802  20.0825899 102.7184276  66.3051225  19.7316316
 102.1959891  67.6277894  20.2507548 102.1031264  72.1604652  14.7814556
 101.4677097  72.2339279  15.4935461 101.7728671  72.7498251  14.1033635
 107.3329614  66.6607035  20.9858878 108.0654786  66.0906252  21.2196707
 106.5768970  66.2728636  21.4265383  96.6074193  69.6224130  14.4775531
  96.4910451  68.9469033  15.1456615  96.7176453  69.1356504  13.6607684
  98.9505734  69.0834277  18.1822220  98.5863941  68.5564898  18.8935142
  99.8072850  68.6932746  18.0088706 104.8555034  60.3728609  25.4453486
 104.5238359  61.2424020  25.2214701 104.2600648  60.0564893  26.1247517
  98.5911221  64.1124177  13.1783569  98.7585623  64.9804413  13.5454040
  98.4008390  64.2751458  12.2544858 101.3486554  72.5741155  24.8449399
 101.0487277  73.4766194  24.7365206 101.0037613  72.3073339  25.6970552
  94.7999035  69.0254952  20.8786103  93.8749532  68.8931166  21.0863795
  95.0483448  69.8049171  21.3756046 104.7483698  65.0923696  22.5246836
 103.8400575  65.0239104  22.2305597 104.6971293  65.5695641  23.3528662
  98.5700441  66.5681834  14.1630235  98.4500067  67.0138885  15.0015716
  97.8753030  66.9167152  13.6043774  92.1607846  68.6688226  21.7129893
  92.2900227  68.9222705  22.6269304  91.4805298  69.2615934  21.3934548
  96.3307334  79.3385476  17.8120367  96.2531363  80.2893301  17.8908847
  95.7268977  78.9931348  18.4695293 106.6145344  63.2940134  24.3024710
 105.9719724  63.5872667  23.6564505 106.1100272  63.1793054  25.1077907
 104.2685508  67.0403307  14.9910570 105.1803364  67.2730694  14.8158267
 103.7595155  67.6240351  14.4285648  97.0770936  69.3198795  30.0299701
  97.8185620  69.8583839  29.7534524  96.3707921  69.9465083  30.1871252
 102.5526275  71.4627935  28.6271862 102.9609631  71.0210346  27.8826494
 101.8303537  70.8880563  28.8806055  98.9057345  66.4000542  26.0005419
  99.7518541  66.8239955  26.1440068  98.8455983  65.7434166  26.6943982
 102.8755090  72.0229126  22.3824151 102.2463952  72.1874840  21.6800219
 102.4880752  72.4370735  23.1535115 106.7544322  72.9583563  19.7368515
 106.0695360  73.3382465  19.1865548 106.8388171  73.5678890  20.4700462
 102.0556791  64.0604910  27.6586593 101.8117723  64.8146971  27.1220868
 102.3316721  64.4390258  28.4933840 104.0095253  70.6043523  26.3363858
 104.2212149  71.2475282  25.6598239 103.9625002  69.7705839  25.8685788
 101.6121482  63.2161343  23.2400430 100.7505961  63.5142597  23.5317168
 101.6383917  63.4331742  22.3081463  98.4283052  71.7603534  19.6474236
  98.8921397  72.0391237  18.8578859  98.1639850  70.8586978  19.4647327
  95.3207133  71.3075015  22.5853999  95.8908490  71.7362284  21.9471484
  95.9115245  71.0257600  23.2838185  97.3651938  67.8826686  16.4563801
  98.0675981  68.3347730  16.9237728  97.0332566  67.2410505  17.0843694
  91.1077272  66.1410239  21.7580935  90.3176326  66.3967767  21.2821045
  91.5988519  66.9558577  21.8632975 105.1241081  73.4815478  24.5086216
 105.9458525  73.0795665  24.2268897 105.1203484  73.3783712  25.4602331
  93.0592017  66.5054818  18.7164411  92.2623180  66.6173512  19.2347907
  92.8317609  66.8441470  17.8505302  98.8897685  73.0299521  26.6646926
  98.9542117  73.4919928  27.5005098  98.1808609  72.3996886  26.7929236
  89.3914975  66.3940729  24.1895926  89.6423013  67.2787739  24.4553502
  89.9274523  66.2145331  23.4171017 113.2147074  69.8254226  20.8571187
 112.4610783  69.2561624  20.7015192 113.3494616  69.7916891  21.8041822
  98.6045702  74.6967629  16.5325906  98.4691377  75.5419164  16.9610754
  99.1455515  74.8986906  15.7691840  92.0575100  72.2143067  17.1053832
  92.5699620  73.0086317  17.2559396  92.7097813  71.5169357  17.0387433
  93.8669985  75.3308823  19.1876585  94.0436613  76.2526788  18.9997569
  94.6626818  75.0167242  19.6170964 100.2314179  75.3191195  30.6626249
  99.7878033  74.5327574  30.3447153 100.8931392  75.5070346  29.9970139
  94.9901300  76.8486997  25.1886927  95.5408725  76.7204060  24.4163921
  94.1512776  77.1481886  24.8381820 102.3295417  75.5993995  28.6907650
 102.3113892  76.4202876  28.1987919 103.2515337  75.4748070  28.9157791
  98.7868471  73.1138125  29.5331158  99.3196808  72.3526413  29.3030466
  98.2582552  72.8211776  30.2755313 101.9538166  58.2198191  25.0624800
 101.6102435  59.1099832  24.9863910 102.3217129  58.0299848  24.1994385
  90.0224017  70.5431721  17.8813402  90.8599239  70.9528729  17.6647110
  90.2002284  69.6031163  17.8513596 101.9188449  68.2106802  13.5697235
 101.4035072  68.9811406  13.8085622 101.6465757  67.5371938  14.1930296
  99.5035560  63.0556502  18.6282473  98.6477156  62.6663353  18.4488112
  99.9162512  63.1348463  17.7682259 101.0334706  60.5902846  23.0274033
 100.5299502  60.5532981  22.2141838 101.3265313  61.4995588  23.0870690
  97.2777592  60.6741575  22.0340215  98.1430589  60.4784384  21.6746104
  97.3455101  60.4451927  22.9609572 106.8922723  70.9639156  15.5050408
 106.1152166  70.6250316  15.0605571 107.5714204  70.9691780  14.8305374
 101.7074752  66.0833894  15.3957016 101.4024888  66.3980043  16.2467159
 102.6605194  66.1615314  15.4384349 100.1521184  72.2424117  17.0449970
  99.6242545  71.5076877  16.7323208  99.6508687  73.0198793  16.7989938
 105.1314030  70.4373138  22.1617016 104.4737704  71.1272399  22.2497145
 105.9354429  70.8269570  22.5051003  94.8839911  62.9043783  19.4056582
  95.4583663  62.6818965  18.6729775  95.4710894  62.9732478  20.1585183
 103.9419489  68.7917510  20.2120958 104.4551370  69.4247502  20.7142668
 104.5920713  68.1918706  19.8464318  95.2109499  64.9348244  13.4252467
  94.3746811  65.2722931  13.7461742  95.0714268  64.7997224  12.4879604
  97.1862579  59.7785032  18.1331651  96.5326991  59.4634049  17.5088266
  97.1443053  59.1560773  18.8591474  98.2973784  70.0604327  10.0484943
  97.3900846  69.8293581  10.2476092  98.7944816  69.2641947  10.2358925
 100.4200319  66.2666966  22.4579299  99.5022881  66.4881913  22.3000987
 100.8360463  66.3413276  21.5991006 101.2035367  67.6658382  17.5881979
 101.9507186  68.1779779  17.2789101 101.4726957  67.3442434  18.4486373
  99.4762017  70.1616922  14.5708933  98.5673237  69.8775955  14.6681403
  99.5057101  70.5816001  13.7112240 104.7081285  73.7723512  18.3400101
 104.2543612  72.9314422  18.3965291 104.0775252  74.4084910  18.6774881
 103.6514204  64.7015498  19.5700768 102.9136961  64.1892884  19.9011011
 103.9040978  64.2615879  18.7584045 103.1514224  75.6100008  19.2749919
 103.4437198  76.1705066  18.5562285 103.6612845  75.9028569  20.0303078
 103.7525832  57.4791750  20.1642538 104.0584709  56.6189113  19.8768453
 104.4778437  58.0709370  19.9641531  90.0450188  67.8822436  18.5524135
  89.8474588  67.2891797  17.8275202  89.4896852  67.5774647  19.2700074
  98.0246911  67.7745543  20.6718729  98.0795521  66.8219379  20.5961205
  97.2138113  67.9304982  21.1560027  99.1738105  71.7025666  11.9097012
  98.7357535  70.9861525  11.4502649  99.9148546  71.9301781  11.3482103
  95.9639271  66.3922603  18.4309108  95.1507137  66.6916773  18.8374300
  96.4598266  65.9978291  19.1483590  98.1147849  76.3880360  20.3643372
  98.0724028  76.6141206  19.4351904  99.0310548  76.1543734  20.5129173
 101.5613483  66.8564427  27.2624001 101.9162871  67.0835900  28.1218467
 102.2085614  67.1882804  26.6401257 107.2911220  69.9782863  17.9673330
 107.1529119  70.1684459  17.0394520 106.9347439  70.7402246  18.4241382
 107.3180600  72.0459390  22.9784602 107.7517106  71.9534679  23.8267656
 108.0312180  72.0216890  22.3404618  96.2313650  73.2643389  20.1605335
  97.0254249  72.7693709  19.9587910  95.5205342  72.7361252  19.7973040
 101.0508495  75.6461484  24.5117703 101.1045517  76.2152420  25.2795418
 100.1823276  75.8163369  24.1471740  92.5396414  67.4086470  16.2365088
  91.6094002  67.3470926  16.4535050  92.6353885  66.8862423  15.4401729
  92.4581963  63.9341283  18.8243329  92.7188780  64.8486616  18.7152490
  93.2799135  63.4665726  18.9739942 108.1796149  72.0883091  25.5117487
 108.3732039  72.9928901  25.7576762 108.0796767  71.6290510  26.3456072
 103.2411258  72.2389833  31.0858368 103.0896764  72.0100385  30.1688452
 103.2315937  73.1960435  31.0989713 100.0096594  69.8121746  26.0704634
 100.9388654  69.9632906  25.8973602  99.5887624  69.9005767  25.2153281
  98.8084926  73.8372411  23.8403172  98.6696012  73.4691195  24.7129110
  98.0199522  74.3520050  23.6687130  99.4033078  78.9381507  15.1828709
  99.5784834  78.4669550  15.9974331  98.7165866  79.5647273  15.4109969
 100.3590141  73.2154013  21.2292010 100.0239974  73.1754783  22.1249660
  99.8594087  72.5498729  20.7562420 103.2949333  70.5610048  11.5029069
 102.6778503  69.8356876  11.4062122 102.8265821  71.3219408  11.1596144
  96.9616686  68.3341603  26.2428271  97.6716304  67.6934795  26.2014889
  96.9185994  68.5854497  27.1654451 104.9503464  75.2708956  29.1634850
 104.8916011  74.5868176  28.4965433 105.3522983  76.0127946  28.7115476
  93.9694163  82.0870870  21.9568569  94.2090762  82.7189394  22.6347587
  93.1263360  81.7358910  22.2433928  95.0847879  64.7795472  10.6250374
  94.2077345  64.6584273  10.2612620  95.5605632  63.9881550  10.3729262
 104.9520872  73.2348540  27.3948829 104.0647651  72.8974462  27.5175228
 105.5219423  72.5031571  27.6317595  86.6050019  69.5672632  20.7191881
  87.2921059  69.2534362  20.1312896  86.4498148  70.4713996  20.4459132
  98.4822025  77.8949992  24.3610073  98.4092197  78.7004964  24.8729377
  98.0399418  78.0941958  23.5358094  98.2711805  77.1321762  17.8712894
  97.4879327  77.6743442  17.9651119  98.9704550  77.6495742  18.2707135
 101.5808455  62.9416392  20.5147100 102.0777154  62.1886354  20.1948170
 100.8095436  62.9780708  19.9490309 109.4338212  68.6456757  22.1565391
 109.4228089  69.5281473  21.7859324 108.5655592  68.2928308  21.9619928
 100.9420709  77.7936826  26.5168231 101.6548681  78.4284291  26.4444133
 100.4510737  77.8900692  25.7008233 102.6638236  71.6988079  18.0885523
 101.7294514  71.8189541  17.9190227 102.8414904  70.7960546  17.8245533
  98.1643424  65.0833775  20.2418784  97.7941211  64.5304815  20.9299690
  98.6602516  64.4791908  19.6893784 106.0510787  67.5405398  18.6235557
 106.5171239  68.3733390  18.5495860 106.5018287  67.0750380  19.3280816
  95.9932622  75.5431270  27.3373802  96.6942082  76.1767753  27.4903196
  95.5227737  75.8846001  26.5769441 104.1187018  73.8849219  15.6221709
 104.3946862  73.7705814  16.5315583 103.2491517  73.4866704  15.5833882
 104.0227450  59.9085985  22.6626458 103.1090529  60.1390212  22.8308665
 104.4520551  59.9924429  23.5140491 103.7933908  68.0975877  25.1626353
 103.1405358  68.3451785  24.5078805 104.1714288  67.2840015  24.8288830
 100.7541082  78.1335570  19.2654523 100.9363477  77.3157226  19.7282275
 101.5774068  78.3503263  18.8279413 101.0883248  77.0603755  16.5269571
 101.6171014  76.5496210  15.9139733 101.3511467  76.7446286  17.3915104
  99.8421481  68.8395688  31.6492390  99.1662118  68.7389818  32.3194765
 100.6649115  68.6834902  32.1128387  91.5900340  75.0767625  24.2704905
  92.1753777  74.3311313  24.4032809  91.3925179  75.3871581  25.1541569
  94.4438995  78.1118872  19.2867347  93.7749371  78.5965000  18.8031387
  94.3051865  78.3588093  20.2010726  86.1817995  67.6473225  22.9909348
  86.2202095  67.1136816  23.7846466  85.6758288  67.1208430  22.3720325
  98.5844264  80.1462616  25.8850006  99.1362572  80.3094237  26.6499091
  98.9250458  80.7367053  25.2130030 103.4355138  74.9723873  31.7398660
 103.9795042  75.5853831  31.2453615 102.8541983  75.5303452  32.2565673
  89.8126573  66.3737327  16.0663279  90.1080014  65.4648006  16.0130333
  88.9114608  66.3525067  15.7444282 101.7212651  78.0944591  22.8713688
 101.5963791  77.2934331  22.3624633 102.3791742  78.5890785  22.3827658
  93.3420820  64.4493324  22.0490828  92.6207405  65.0629291  21.9098301
  94.1314075  64.9851089  21.9707474 103.7847560  75.8953611  24.4993238
 102.8377895  75.7758962  24.4271565 104.1330333  75.0076109  24.5819499
  91.5414414  64.0551425  16.1902605  91.2127120  63.1748804  16.0077710
  91.8953785  63.9999093  17.0778994 100.7893993  75.6906327  20.6997590
 100.6418955  74.7623035  20.8805160 101.6147487  75.7126418  20.2154665
  94.6556237  64.3424395  16.5578082  94.9952310  64.8710316  15.8356691
  95.1028358  64.6804801  17.3336649 104.3928115  76.5134886  21.7862463
 105.3174662  76.3077748  21.6486914 104.2243418  76.2651287  22.6951804
  98.0016150  59.8110758  24.4608473  98.8242219  59.3371236  24.3387364
  98.2454214  60.5901241  24.9607160  96.6424384  62.8399016  14.7571375
  97.3632747  63.2180269  14.2535092  96.0189689  63.5587893  14.8606353
 100.7855507  63.5444165  15.6929707 101.0019122  64.4268803  15.3918535
 100.3049574  63.1530379  14.9635349  95.5254729  66.5029878  22.2700452
  95.3799309  66.8170181  23.1624733  95.0479932  67.1214779  21.7171351
  97.3851112  63.4932426  22.3181341  97.3712680  62.5973520  21.9813639
  98.1023540  63.5003090  22.9519628  99.2377242  63.9269767  24.3634469
  98.9795020  64.8486837  24.3618799  98.7062283  63.5300201  25.0534933
 104.1823431  77.0320554  17.1424554 104.3560309  76.4666976  16.3898407
 104.6752322  77.8321449  16.9604044  90.0000391  69.0435223  25.2088113
  89.4553859  69.8195031  25.3408387  90.8779741  69.3906027  25.0507235
  96.7888008  62.3746807  17.5868912  96.9103919  61.4463453  17.7859799
  96.4990050  62.3885493  16.6747227  99.6579198  60.0601717  20.7235631
  99.6800895  60.1241050  19.7687611 100.0747257  59.2206226  20.9176138
 110.0362822  69.7956977  18.7614854 110.4793968  69.0464302  18.3633977
 109.1589333  69.7867113  18.3788586 105.1698604  76.3487318  14.2421453
 105.8649508  76.9694011  14.4608767 105.5121754  75.4982669  14.5173830
 107.0690027  73.7987024  15.7708783 107.5941351  74.1374296  15.0458103
 106.9812379  72.8634039  15.5871918  98.7310075  77.7121097  27.8998660
  99.0397202  77.4670244  28.7721360  99.5285557  77.9167736  27.4117530
  98.7530687  79.8659007  20.1304037  98.3135678  79.3735386  20.8236893
  99.5038804  79.3231975  19.8896112  91.2323026  76.0570548  20.1328665
  92.0581046  75.7574320  19.7527308  90.8817078  75.2878170  20.5818453
  96.2004560  75.4097016  22.2026338  95.5784569  74.7467721  21.9028566
  96.8709426  75.4358148  21.5199986  89.4331631  73.9756874  21.0917598
  88.5963540  73.5479049  20.9101599  89.4055277  74.1689318  22.0288389
 106.7583933  74.4319927  31.0759981 105.9679476  74.4144066  30.5364481
 106.5217287  74.9708221  31.8309018 106.8781808  71.2812394  28.3892710
 106.9279813  71.1162401  29.3308233 106.7695731  70.4139653  27.9990591
  95.7618067  73.9600939  15.6784799  95.9106187  74.6436404  15.0251471
  96.5684510  73.9406029  16.1934254 104.1685570  67.2643322  29.7052017
 105.0695433  67.1249786  29.4136014 104.2433545  67.4297776  30.6450194
 108.3800005  73.7009335  28.6334731 108.0884813  74.0639316  29.4698192
 107.7672136  72.9876343  28.4548063 109.5795687  71.2662215  21.1537302
 110.4142578  71.7052019  21.3174862 109.7154816  70.7900868  20.3345547
 106.6287193  68.8241950  27.1014789 107.1041314  69.0169596  26.2933641
 105.7052758  68.8801136  26.8558173  93.5170699  69.9866117  16.6845868
  93.2716741  69.0828447  16.8826078  93.6866614  69.9883267  15.7425346
 101.2067409  60.8589793  26.0670623 101.7249353  61.5950820  25.7417112
 100.8522542  61.1653787  26.9017382  92.7866347  65.7194475  14.1832029
  92.0935592  65.7938830  13.5272065  92.5418099  64.9554818  14.7053546
 101.4580004  57.2790076  21.5871520 101.7381757  56.6113265  22.2131946
 102.2430610  57.4719171  21.0746184  99.2613472  76.4549070  13.1496546
  98.6887439  77.0739257  12.6967018  99.8346266  77.0048431  13.6836468
 105.3288862  65.7007710  25.3343095 106.2806285  65.8005808  25.3555319
 105.1592312  64.9085978  25.8441179 103.3503241  62.7863293  25.5202496
 102.7553173  63.0668306  24.8248985 103.0652938  63.2757194  26.2919237
 102.4810732  76.7386220  14.2805128 103.4141405  76.6731782  14.4838004
 102.3933945  77.5742487  13.8219661 107.8076940  68.9213830  24.4485395
 107.7753260  67.9829830  24.6345078 108.4177563  68.9997866  23.7151219
  99.6460271  67.7909883  10.4912599 100.5919375  67.6616091  10.5601017
  99.2674515  67.0524544  10.9682027 107.9571428  65.7124873  24.4943678
 107.4410477  64.9283330  24.3073607 108.8411377  65.3843590  24.6590197
 105.6182155  59.4565889  20.4539490 105.4206976  59.1480977  21.3382822
 106.2281861  60.1827527  20.5837420 113.6253490  69.9829836  23.5891431
 114.3556878  69.7215125  24.1499135 113.0160435  69.2458558  23.6293499
 111.7068787  68.1237699  24.1865883 110.9801950  67.9893664  23.5782374
 111.2916074  68.4314528  24.9922601  99.5298963  71.8427629  31.9513256
 100.4501973  72.0206228  32.1453302  99.4948546  70.8983674  31.7992955
  97.8303188  65.7159859  10.4267484  96.9234643  65.4192972  10.5030197
  98.1079169  65.4189677   9.5601770  88.7481128  67.0366222  20.8766530
  88.4283912  66.1831531  20.5840904  88.2014556  67.2514800  21.6324498
  92.5261036  69.7528663  24.5936037  92.7447045  70.6845771  24.6124071
  92.9386809  69.3936638  25.3790841  99.4465253  60.2596749  16.5811725
  98.6365982  59.9143834  16.9566971 100.1349670  59.9504292  17.1699337
 101.3755802  59.3374795  18.2036022 101.9286840  59.7570249  18.8626045
 101.6125888  58.4110544  18.2458978  96.6001972  62.5746794  10.5679463
  97.4621136  62.9001692  10.8275280  96.7852316  61.7878290  10.0552529
  88.6169388  70.6569134  22.8459652  87.9232859  70.2423087  22.3329606
  89.3642379  70.6989670  22.2493071 104.7534609  61.4475321  17.7114686
 104.1733278  62.1060125  17.3292738 104.4870541  60.6252665  17.3002104
 103.2038175  60.8480378  19.9136006 103.7037954  60.9596913  19.1050325
 103.8473783  60.5441431  20.5536815  90.5306131  70.5887388  20.7225667
  90.5076819  70.6875075  19.7707550  90.8406767  71.4352538  21.0442833
  93.1893508  72.6463543  24.8372281  94.1436762  72.6147485  24.7702213
  92.9906032  72.1854166  25.6522507  93.7792891  71.2164659  27.4043079
  94.5985780  71.7108737  27.4277916  94.0529698  70.2996627  27.3760646
 103.5359487  63.6075411  16.7671034 102.6485342  63.8925062  16.5491229
 103.9513476  63.4469174  15.9198311 106.8874023  63.6321932  20.4825374
 107.6634413  64.1218384  20.7549990 106.1622157  64.0579986  20.9397243
 109.3246582  64.3449551  21.5399314 109.9191072  64.1045287  20.8292622
 109.3973165  63.6256682  22.1672850  91.5443737  78.1883162  21.8542479
  91.4098205  77.4283563  21.2880477  91.1275800  78.9124062  21.3871268
 102.6802700  73.3720086  10.8619054 103.3838550  73.5770088  11.4776710
 101.9565349  73.9396848  11.1268138 103.5100511  69.1229947  16.9821324
 103.4535712  69.5798498  16.1428957 104.0628853  68.3620631  16.8044167
 107.3205316  64.9119679  17.8071444 107.0642251  64.5116314  18.6379652
 106.6958184  65.6263473  17.6821583 111.6317654  67.6515752  20.3142735
 111.0717212  67.7208941  21.0874297 111.0261158  67.4756737  19.5942232
  94.7012863  79.0852479  22.0660922  94.5845247  80.0297912  21.9639612
  93.8805309  78.7826041  22.4546721 104.5889398  73.8102615  12.9117514
 105.4235002  73.3783813  12.7294989 104.4273741  73.6384629  13.8394409
 104.2435290  70.3134728  14.2773854 104.1884094  70.1479000  13.3362298
 103.6181345  71.0210761  14.4336043 101.5581197  72.6183640  33.6027416
 102.4272357  72.7924292  33.2414051 101.0787949  73.4378057  33.4803146
  97.5531415  59.8142837  13.8559172  97.5410085  60.7584677  14.0127443
  98.4454837  59.6312983  13.5618633  95.7267377  79.7380741  25.2816850
  96.6294624  79.7704351  25.5983345  95.5004747  78.8081192  25.2963186
  97.4820979  78.4911728  21.9426929  96.5316610  78.4913589  21.8291301
  97.7853465  77.7444462  21.4262963 101.3683535  56.4085614  18.1105109
 100.6015931  55.8544100  18.2561791 101.7794240  56.4807483  18.9719260
 113.2173673  84.3272266  23.0072691 113.8552083  84.2079013  22.3036031
 113.0994516  85.2753110  23.0660643 110.0263379  84.2799694  22.9434216
 109.6881891  84.1640759  22.0554751 110.8953147  83.8790859  22.9235222
 110.5083162  85.4334546  28.9020421 110.4971803  85.0387344  28.0300925
 110.6703802  84.7000618  29.4954193 103.4314627  87.6286362  21.7715327
 104.2235919  87.2877187  21.3561627 103.6711277  87.7381337  22.6917481
 107.2290423  88.2171658  27.8499605 106.9380289  89.1217288  27.7346272
 107.8647408  88.2588185  28.5643675 108.1546630  85.5948506  24.4400965
 108.7510202  85.3704528  23.7257928 108.2121602  84.8533252  25.0426413
 112.7714941  82.0523720  20.0825899 113.5578030  81.6343143  19.7316316
 113.0353646  82.9569812  20.2507548 115.6948789  75.7020527  25.4453486
 115.3632114  76.5715938  25.2214701 115.0994402  75.3856811  26.1247517
 112.1880308  87.9033073  24.8449399 111.8881031  88.8058112  24.7365206
 111.8431368  87.6365256  25.6970552 105.6392790  84.3546870  20.8786103
 104.7143286  84.2223084  21.0863795 105.8877203  85.1341089  21.3756046
 115.5877452  80.4215613  22.5246836 114.6794329  80.3531022  22.2305597
 115.5365048  80.8987558  23.3528662 103.0001601  83.9980143  21.7129893
 103.1293982  84.2514622  22.6269304 102.3199052  84.5907851  21.3934548
 109.6618318  81.8405259  30.4681734 108.8851652  82.3999179  30.4584598
 110.3008881  82.3262042  30.9896604 117.4539098  78.6232052  24.3024710
 116.8113479  78.9164585  23.6564505 116.9494027  78.5084972  25.1077907
 107.9164690  84.6490712  30.0299701 108.6579375  85.1875756  29.7534524
 107.2101676  85.2757001  30.1871252 113.3920030  86.7919853  28.6271862
 113.8003386  86.3502263  27.8826494 112.6697291  86.2172480  28.8806055
 109.7451100  81.7292459  26.0005419 110.5912295  82.1531873  26.1440068
 109.6849737  81.0726084  26.6943982 112.8950545  79.3896828  27.6586593
 112.6511477  80.1438888  27.1220868 113.1710476  79.7682175  28.4933840
 114.8489008  85.9335440  26.3363858 115.0605903  86.5767200  25.6598239
 114.8018756  85.0997757  25.8685788 112.4515237  78.5453261  23.2400430
 111.5899716  78.8434514  23.5317168 112.4777672  78.7623660  22.3081463
 106.1600887  86.6366933  22.5853999 106.7302244  87.0654201  21.9471484
 106.7508999  86.3549518  23.2838185 106.6526054  81.8030360  30.8315011
 106.0224714  82.4846641  31.0650407 106.5462142  81.6913442  29.8868149
 101.9471026  81.4702156  21.7580935 101.1570080  81.7259685  21.2821045
 102.4382274  82.2850494  21.8632975 103.8985772  81.8346736  18.7164411
 103.1016935  81.9465430  19.2347907 103.6711364  82.1733388  17.8505302
 109.7291439  88.3591439  26.6646926 109.7935872  88.8211846  27.5005098
 109.0202363  87.7288804  26.7929236 100.2308729  81.7232647  24.1895926
 100.4816768  82.6079657  24.4553502 100.7668278  81.5437248  23.4171017
 105.9306797  76.1051126  33.1940262 105.5373742  75.5517325  33.8687906
 106.7472937  76.4161705  33.5846779 108.8474758  77.5209005  30.7860518
 109.5884471  78.1216158  30.7064981 109.0792680  76.7786643  30.2278561
 103.9916096  82.7065373  29.0638748 103.8769611  81.8050630  29.3645847
 103.1360613  82.9529069  28.7123564 111.0707933  90.6483113  30.6626249
 110.6271788  89.8619491  30.3447153 111.7325147  90.8362263  29.9970139
 105.8295055  92.1778914  25.1886927 106.3802480  92.0495978  24.4163921
 104.9906530  92.4773804  24.8381820 113.1689171  90.9285913  28.6907650
 113.1507647  91.7494794  28.1987919 114.0909091  90.8039988  28.9157791
 109.6262226  88.4430042  29.5331158 110.1590562  87.6818330  29.3030466
 109.0976307  88.1503694  30.2755313 112.7931921  73.5490108  25.0624800
 112.4496190  74.4391750  24.9863910 113.1610883  73.3591766  24.1994385
 100.8617771  85.8723639  17.8813402 101.6992993  86.2820647  17.6647110
 101.0396039  84.9323081  17.8513596 110.3429314  78.3848420  18.6282473
 109.4870911  77.9955271  18.4488112 110.7556266  78.4640381  17.7682259
 111.8728461  75.9194763  23.0274033 111.3693257  75.8824899  22.2141838
 112.1659068  76.8287506  23.0870690 108.1171347  76.0033493  22.0340215
 108.9824344  75.8076302  21.6746104 108.1848856  75.7743845  22.9609572
 105.7233666  78.2335701  19.4056582 106.2977418  78.0110883  18.6729775
 106.3104648  78.3024396  20.1585183 108.0256334  75.1076950  18.1331651
 107.3720746  74.7925967  17.5088266 107.9836808  74.4852690  18.8591474
 111.2594074  81.5958884  22.4579299 110.3416635  81.8173831  22.3000987
 111.6754218  81.6705194  21.5991006 114.5919586  72.8083667  20.1642538
 114.8978463  71.9481031  19.8768453 115.3172191  73.4001288  19.9641531
 100.8843942  83.2114354  18.5524135 100.6868342  82.6183715  17.8275202
 100.3290606  82.9066564  19.2700074 108.8640666  83.1037461  20.6718729
 108.9189276  82.1511297  20.5961205 108.0531868  83.2596900  21.1560027
 106.8033026  81.7214520  18.4309108 105.9900891  82.0208691  18.8374300
 107.2992020  81.3270209  19.1483590 112.4007238  82.1856345  27.2624001
 112.7556625  82.4127818  28.1218467 113.0479369  82.5174722  26.6401257
 106.2947101  79.2932876  24.0470342 106.9346480  79.1521635  23.3493306
 105.4624631  79.0067389  23.6708944 111.8902249  90.9753402  24.5117703
 111.9439271  91.5444338  25.2795418 111.0217030  91.1455287  24.1471740
 103.2975717  79.2633201  18.8243329 103.5582534  80.1778534  18.7152490
 104.1192889  78.7957643  18.9739942 104.7700642  80.6770958  25.9942154
 105.4423696  80.4688320  25.3454803 103.9430429  80.4793044  25.5547386
 110.6726214  77.3032899  28.0107815 110.0254129  78.0022849  27.9172291
 111.4427230  77.7369043  28.3784063 114.0805012  87.5681751  31.0858368
 113.9290519  87.3392303  30.1688452 114.0709692  88.5252352  31.0989713
 110.8490349  85.1413664  26.0704634 111.7782409  85.2924823  25.8973602
 110.4281379  85.2297685  25.2153281 109.6478681  89.1664328  23.8403172
 109.5089766  88.7983113  24.7129110 108.8593277  89.6811968  23.6687130
 105.1728140  83.9513561  26.7544591 105.0347938  83.2193800  27.3556130
 106.0833063  83.8622461  26.4728779 107.8010440  83.6633520  26.2428271
 108.5110059  83.0226712  26.2014889 107.7579748  83.9146415  27.1654451
 115.7897219  90.6000874  29.1634850 115.7309765  89.9160094  28.4965433
 116.1916737  91.3419864  28.7115476 106.5139374  80.6498738  28.0623910
 105.9776731  80.1989477  28.7145506 105.9256083  80.7844647  27.3194374
 115.7914626  88.5640458  27.3948829 114.9041405  88.2266379  27.5175228
 116.3613177  87.8323489  27.6317595  97.4443773  84.8964549  20.7191881
  98.1314813  84.5826279  20.1312896  97.2891902  85.8005914  20.4459132
 102.2478496  79.7854746  25.1476905 102.1636684  79.1780415  24.4127315
 101.4261202  80.2763764  25.1486401 112.4202209  78.2708309  20.5147100
 112.9170909  77.5178272  20.1948170 111.6489191  78.3072626  19.9490309
 111.7814463  93.1228744  26.5168231 112.4942435  93.7576209  26.4444133
 111.2904492  93.2192610  25.7008233 109.0037178  80.4125692  20.2418784
 108.6334966  79.8596733  20.9299690 109.4996271  79.8083826  19.6893784
 106.8326377  90.8723187  27.3373802 107.5335836  91.5059670  27.4903196
 106.3621492  91.2137919  26.5769441 114.8621204  75.2377903  22.6626458
 113.9484284  75.4682130  22.8308665 115.2914306  75.3216347  23.5140491
 114.6327663  83.4267795  25.1626353 113.9799113  83.6743702  24.5078805
 115.0108043  82.6131933  24.8288830 110.6815236  84.1687606  31.6492390
 110.0055873  84.0681735  32.3194765 111.5042870  84.0126820  32.1128387
 102.4294095  90.4059542  24.2704905 103.0147532  89.6603230  24.4032809
 102.2318933  90.7163499  25.1541569  97.0211749  82.9765143  22.9909348
  97.0595849  82.4428733  23.7846466  96.5152042  82.4500348  22.3720325
 104.4002512  77.8229683  26.4871890 104.4643838  78.6844514  26.0749288
 104.3369632  77.2103685  25.7544249 103.8754784  79.8952816  30.1344925
 104.5026823  79.5129893  30.7482449 103.0182703  79.6767018  30.5000617
 114.2748893  90.3015791  31.7398660 114.8188797  90.9145749  31.2453615
 113.6935738  90.8595369  32.2565673 100.6520327  81.7029245  16.0663279
 100.9473768  80.7939923  16.0130333  99.7508363  81.6816984  15.7444282
 104.1814574  79.7785241  22.0490828 103.4601160  80.3921209  21.9098301
 104.9707830  80.3143006  21.9707474 106.9840888  77.1139668  28.3231480
 107.5075289  77.3601964  29.0857789 106.7653221  77.9459703  27.9034617
 102.3808169  79.3843342  16.1902605 102.0520875  78.5040721  16.0077710
 102.7347539  79.3291011  17.0778994 105.4949992  79.6716312  16.5578082
 105.8346064  80.2002233  15.8356691 105.9422112  80.0096718  17.3336649
 108.1893433  78.0553363  26.0081150 107.8490253  77.2561176  26.4101830
 107.4832439  78.3555074  25.4357983 108.8409904  75.1402675  24.4608473
 109.6635974  74.6663154  24.3387364 109.0847968  75.9193159  24.9607160
 106.3648483  81.8321796  22.2700452 106.2193064  82.1462099  23.1624733
 105.8873687  82.4506696  21.7171351 108.2244866  78.8224344  22.3181341
 108.2106435  77.9265437  21.9813639 108.9417294  78.8295008  22.9519628
 110.0770997  79.2561684  24.3634469 109.8188775  80.1778755  24.3618799
 109.5456037  78.8592119  25.0534933 100.8394145  84.3727140  25.2088113
 100.2947613  85.1486948  25.3408387 101.7173495  84.7197945  25.0507235
 107.6281762  77.7038724  17.5868912 107.7497673  76.7755370  17.7859799
 107.3383804  77.7177410  16.6747227 110.4972952  75.3893635  20.7235631
 110.5194649  75.4532968  19.7687611 110.9141011  74.5498143  20.9176138
 101.6260167  83.4997037  28.1018270 100.8841903  83.6479672  28.6882900
 101.3052912  83.7605302  27.2385019 109.5703830  93.0413015  27.8998660
 109.8790956  92.7962162  28.7721360 110.3679312  93.2459653  27.4117530
 100.2725386  89.3048792  21.0917598  99.4357294  88.8770966  20.9101599
 100.2449031  89.4981235  22.0288389 107.1122842  79.2170722  31.7958844
 107.1610997  80.0932844  31.4136614 107.6545356  78.6748115  31.2230487
 117.5977687  89.7611845  31.0759981 116.8073231  89.7435984  30.5364481
 117.3611042  90.3000139  31.8309018 117.7175562  86.6104311  28.3892710
 117.7673567  86.4454319  29.3308233 117.6089486  85.7431570  27.9990591
 115.0079325  82.5935239  29.7052017 115.9089187  82.4541704  29.4136014
 115.0827299  82.7589694  30.6450194 109.3422130  79.9702094  28.5505203
 108.4725439  80.2635660  28.2787791 109.5781610  80.5542539  29.2712466
 119.2193759  89.0301253  28.6334731 118.9278567  89.3931233  29.4698192
 118.6065890  88.3168261  28.4548063 117.4680947  84.1533867  27.1014789
 117.9435069  84.3461514  26.2933641 116.5446513  84.2093053  26.8558173
 112.0461164  76.1881711  26.0670623 112.5643108  76.9242738  25.7417112
 111.6916297  76.4945704  26.9017382 112.2973758  72.6081994  21.5871520
 112.5775512  71.9405183  22.2131946 113.0824365  72.8011089  21.0746184
 116.1682616  81.0299628  25.3343095 117.1200039  81.1297725  25.3555319
 115.9986067  80.2377896  25.8441179 114.1896996  78.1155211  25.5202496
 113.5946928  78.3960223  24.8248985 113.9046693  78.6049112  26.2919237
 118.6470694  84.2505747  24.4485395 118.6147014  83.3121748  24.6345078
 119.2571318  84.3289784  23.7151219 118.7965183  81.0416791  24.4943678
 118.2804231  80.2575247  24.3073607 119.6805131  80.7135507  24.6590197
 116.4575910  74.7857806  20.4539490 116.2600731  74.4772894  21.3382822
 117.0675615  75.5119445  20.5837420 110.3692718  87.1719546  31.9513256
 111.2895727  87.3498145  32.1453302 110.3342301  86.2275592  31.7992955
  99.5874883  82.3658140  20.8766530  99.2677667  81.5123448  20.5840904
  99.0408311  82.5806718  21.6324498 103.3654790  85.0820581  24.5936037
 103.5840800  86.0137689  24.6124071 103.7780564  84.7228555  25.3790841
 110.2859008  75.5888666  16.5811725 109.4759736  75.2435751  16.9566971
 110.9743425  75.2796210  17.1699337 112.2149556  74.6666713  18.2036022
 112.7680595  75.0862167  18.8626045 112.4519643  73.7402461  18.2458978
 108.2382655  80.6553787  33.9838786 108.1379382  81.6048144  33.9150877
 108.0204197  80.3272026  33.1114856  99.4563143  85.9861051  22.8459652
  98.7626614  85.5715004  22.3329606 100.2036134  86.0281588  22.2493071
 114.0431930  76.1772296  19.9136006 114.5431708  76.2888830  19.1050325
 114.6867538  75.8733349  20.5536815 108.1013925  84.0850926  32.8003847
 107.6181007  84.8851286  33.0067736 108.1874865  84.0958870  31.8471291
 101.3699885  85.9179305  20.7225667 101.3470573  86.0166993  19.7707550
 101.6800522  86.7644456  21.0442833 104.0287263  87.9755460  24.8372281
 104.9830517  87.9439403  24.7702213 103.8299787  87.5146084  25.6522507
 104.6186645  86.5456576  27.4043079 105.4379534  87.0400655  27.4277916
 104.8923453  85.6288544  27.3760646 117.7267777  78.9613850  20.4825374
 118.5028168  79.4510302  20.7549990 117.0015912  79.3871904  20.9397243
  99.8721559  80.8794710  28.1035276 100.5180423  80.3693664  28.5922501
  99.6638710  81.6163392  28.6778701 112.3974952  87.9475558  33.6027416
 113.2666111  88.1216210  33.2414051 111.9181703  88.7669975  33.4803146
 106.5661132  95.0672659  25.2816850 107.4688378  95.0996269  25.5983345
 106.3398502  94.1373110  25.2963186 112.2077289  71.7377531  18.1105109
 111.4409685  71.1836018  18.2561791 112.6187994  71.8099400  18.9719260
 104.2119050  78.0262327  32.2010290 105.0750512  77.6699132  32.4113615
 103.6384461  77.6876222  32.8885694 116.7700551  91.4343044  33.1940262
 116.3767497  90.8809242  33.8687906 117.5866691  91.7453622  33.5846779
 119.6868512  92.8500923  30.7860518 120.4278225  93.4508076  30.7064981
 119.9186435  92.1078561  30.2278561 114.7148539  95.2244733  30.1344925
 115.3420578  94.8421811  30.7482449 113.8576458  95.0058935  30.5000617
 117.9516596  94.5462639  31.7958844 118.0004752  95.4224762  31.4136614
 118.4939110  94.0040032  31.2230487 119.0776410  95.9845704  33.9838786
 118.9773137  96.9340061  33.9150877 118.8597952  95.6563943  33.1114856
 110.7115314  96.2086628  28.1035276 111.3574177  95.6985582  28.5922501
 110.5032465  96.9455310  28.6778701 115.0512805  93.3554245  32.2010290
 115.9144266  92.9991050  32.4113615 114.4778215  93.0168140  32.8885694
  67.7132917   6.3377565  17.3871555  67.2696771   5.5513943  17.0692460
  68.3750130   6.5256715  16.7215446  69.8114155   6.6180365  15.4152956
  69.7932630   7.4389246  14.9233226  70.7334075   6.4934440  15.6403098
  70.7229996   3.2576203  17.8103675  70.5715502   3.0286755  16.8933758
  70.7134675   4.2146804  17.8235020  72.4322202   6.2895325  15.8880156
  72.3734748   5.6054546  15.2210739  72.8341721   7.0314315  15.4360782
  70.9173876   5.9910243  18.4643967  71.4613780   6.6040201  17.9698921
  70.3360721   6.5489821  18.9810980  74.2402671   5.4506297  17.8005288
  73.4498214   5.4330436  17.2609787  74.0036025   5.9894591  18.5554325
  75.8618742   4.7195705  15.3580038  75.5703551   5.0825685  16.1943499
  75.2490874   4.0062713  15.1793370  69.0399935   3.6370010  20.3272723
  69.9091094   3.8110662  19.9659358  68.5606686   4.4564426  20.2048452
  80.6992411  15.3458636   9.7317998  81.3370821  15.2265383   9.0281338
  80.5813253  16.2939479   9.7905950  77.5082117  15.2986064   9.6679522
  77.1700628  15.1827128   8.7800057  78.3771885  14.8977229   9.6480529
  77.9901900  16.4520915  15.6265728  77.9790541  16.0573714  14.7546232
  78.1522539  15.7186988  16.2199499  70.9133364  18.6472732   8.4960634
  71.7054656  18.3063556   8.0806933  71.1530015  18.7567707   9.4162787
  74.7109161  19.2358027  14.5744912  74.4199027  20.1403658  14.4591578
  75.3466145  19.2774555  15.2888982  75.6365368  16.6134876  11.1646272
  76.2328940  16.3890898  10.4503235  75.6940339  15.8719621  11.7671719
  83.1767527   6.7206897  12.1698793  82.8450851   7.5902308  11.9460008
  82.5813140   6.4043181  12.8492823  79.6699046  18.9219443  11.5694706
  79.3699769  19.8244481  11.4610513  79.3250106  18.6551626  12.4215859
  83.0696190  11.4401983   9.2492143  82.1613067  11.3717391   8.9550904
  83.0183786  11.9173928  10.0773968  74.6519826  25.6863763   4.5365673
  74.5743856  26.6371588   4.6154154  74.0481469  25.3409636   5.1940600
  77.1437056  12.8591628  17.1927040  76.3670390  13.4185549  17.1829905
  77.7827619  13.3448411  17.7141910  84.9357836   9.6418421  11.0270017
  84.2932216   9.9350954  10.3809811  84.4312765   9.5271342  11.8323214
  75.3983428  15.6677082  16.7545007  76.1398112  16.2062126  16.4779831
  74.6920413  16.2943371  16.9116559  80.8738768  17.8106222  15.3517169
  81.2822124  17.3688633  14.6071801  80.1516029  17.2358850  15.6051362
  77.2269838  12.7478829  12.7250726  78.0731033  13.1718243  12.8685375
  77.1668475  12.0912453  13.4189289  81.1967582  18.3707413   9.1069458
  80.5676445  18.5353127   8.4045525  80.8093244  18.7849022   9.8780422
  85.0756814  19.3061851   6.4613821  84.3907852  19.6860752   5.9110855
  85.1600663  19.9157177   7.1945769  80.3769283  10.4083197  14.3831899
  80.1330215  11.1625258  13.8466175  80.6529213  10.7868545  15.2179146
  82.3307746  16.9521810  13.0609165  82.5424641  17.5953570  12.3843546
  82.2837494  16.1184126  12.5931095  76.7495544  18.1081821   6.3719543
  77.2133890  18.3869524   5.5824165  76.4852342  17.2065266   6.1892633
  73.6419625  17.6553303   9.3099306  74.2120982  18.0840571   8.6716790
  74.2327737  17.3735887  10.0083492  74.1344792  12.8216730  17.5560317
  73.5043452  13.5033011  17.7895714  74.0280880  12.7099812  16.6113455
  83.4453574  19.8293765  11.2331522  84.2671017  19.4273952  10.9514204
  83.4415977  19.7261999  12.1847638  77.2110177  19.3777808  13.3892233
  77.2754610  19.8398216  14.2250405  76.5021101  18.7475173  13.5174543
  73.4125534   7.1237496  19.9185568  73.0192480   6.5703694  20.5933213
  74.2291675   7.4348074  20.3092086  72.1882477  21.6787110   5.9121891
  72.3649105  22.6005075   5.7242875  72.9839310  21.3645529   6.3416271
  76.3293495   8.5395375  17.5105825  77.0703209   9.1402528  17.4310287
  76.5611418   7.7973013  16.9523867  71.4734833  13.7251742  15.7884055
  71.3588349  12.8236999  16.0891153  70.6179351  13.9715439  15.4368871
  78.5526671  21.6669482  17.3871555  78.1090525  20.8805861  17.0692460
  79.2143885  21.8548633  16.7215446  73.3113792  23.1965284  11.9132234
  73.8621217  23.0682347  11.1409228  72.4725268  23.4960173  11.5627126
  80.6507909  21.9472282  15.4152956  80.6326385  22.7681163  14.9233226
  81.5727829  21.8226358  15.6403098  77.1080963  19.4616412  16.2576465
  77.6409300  18.7004700  16.0275773  76.5795044  19.1690064  17.0000619
  83.4526522  16.7851425   8.8862323  82.7950197  17.4750686   8.9742452
  84.2566921  17.1747857   9.2296309  82.2631981  15.1395798   6.9366265
  82.7763863  15.7725789   7.4387975  82.9133205  14.5396993   6.5709625
  78.7412812  12.6145253   9.1824605  77.8235373  12.8360200   9.0246293
  79.1572955  12.6891564   8.3236313  83.0293777  20.1201799   5.0645407
  82.5756104  19.2792709   5.1210598  82.3987744  20.7563197   5.4020188
  81.4726716  21.9578296   5.9995226  81.7649691  22.5183353   5.2807591
  81.9825337  22.2506857   6.7548385  76.4360342  22.7358647   7.0888679
  76.3936520  22.9619493   6.1597211  77.3523040  22.5022021   7.2374480
  79.8825975  13.2042714  13.9869308  80.2375363  13.4314187  14.8463774
  80.5298107  13.5361091  13.3646563  85.6393092  18.3937677   9.7029909
  86.0729599  18.3012966  10.5512963  86.3524673  18.3695178   9.0649925
  74.5526142  19.6121676   6.8850642  75.3466741  19.1171996   6.6833217
  73.8417835  19.0839539   6.5218347  79.3720987  21.9939771  11.2363009
  79.4258009  22.5630708  12.0040725  78.5035768  22.1641656  10.8717046
  72.2519380  11.6957328  12.7187460  72.9242434  11.4874690  12.0700109
  71.4249167  11.4979414  12.2792693  86.5008641  18.4361378  12.2362794
  86.6944532  19.3407188  12.4822069  86.4009260  17.9768797  13.0701379
  78.1544952   8.3219268  14.7353121  77.5072867   9.0209218  14.6417598
  78.9245968   8.7555412  15.1029370  81.5623750  18.5868121  17.8103675
  81.4109257  18.3578672  16.8933758  81.5528430  19.5438722  17.8235020
  78.3309087  16.1600033  12.7949941  79.2601147  16.3111193  12.6218908
  77.9100117  16.2484054  11.9398588  77.1297418  20.1850698  10.5648479
  76.9908504  19.8169482  11.4374417  76.3412015  20.6998337  10.3932436
  77.7245570  25.2859794   1.9074015  77.8997326  24.8147837   2.7219638
  77.0378358  25.9125560   2.1355276  78.6802633  19.5632300   7.9537316
  78.3452466  19.5233070   8.8494966  78.1806579  18.8977016   7.4807727
  72.6546877  14.9699930  13.4789898  72.5166675  14.2380169  14.0801437
  73.5651801  14.8808831  13.1974085  75.2829178  14.6819890  12.9673577
  75.9928797  14.0413082  12.9260196  75.2398486  14.9332785  13.8899758
  83.2715957  21.6187243  15.8880156  83.2128503  20.9346463  15.2210739
  83.6735475  22.3606233  15.4360782  73.9958112  11.6685108  14.7869217
  73.4595469  11.2175846  15.4390813  73.4074821  11.8031017  14.0439681
  72.2906656  28.4349157   8.6813875  72.5303254  29.0667681   9.3592894
  71.4475852  28.0837197   8.9679235  83.2733364  19.5826827  14.1194136
  82.3860143  19.2452749  14.2420535  83.8431915  18.8509858  14.3562902
  76.8034517  24.2428279  11.0855379  76.7304689  25.0483251  11.5974684
  76.3611911  24.4420245  10.2603401  76.5924297  23.4800049   4.5958201
  75.8091819  24.0221730   4.6896425  77.2917042  23.9974029   4.9952442
  79.2633201  24.1415113  13.2413538  79.9761173  24.7762578  13.1689439
  78.7723230  24.2378979  12.4253540  80.9850728  18.0466366   4.8130830
  80.0507007  18.1667829   4.6435534  81.1627396  17.1438833   4.5490840
  74.3145114  21.8909557  14.0619109  75.0154574  22.5246040  14.2148503
  73.8440229  22.2324288  13.3014748  82.1146400  14.4454164  11.8871659
  81.4617851  14.6930072  11.2324112  82.4926780  13.6318303  11.5534136
  79.0753574  24.4813858   5.9899829  79.2575969  23.6635513   6.4527582
  79.8986560  24.6981550   5.5524719  79.4095740  23.4082043   3.2514878
  79.9383506  22.8974497   2.6385040  79.6723959  23.0924573   4.1160411
  78.1633973  15.1873975  18.3737696  77.4874610  15.0868105  19.0440071
  78.9861607  15.0313189  18.8373693  69.9112833  21.4245912  10.9950211
  70.4966269  20.6789600  11.1278116  69.7137671  21.7349869  11.8786875
  72.7651488  24.4597159   6.0112654  72.0961863  24.9443287   5.5276694
  72.6264357  24.7066380   6.9256032  76.9056756  26.4940903  12.6095312
  77.4575064  26.6572524  13.3744397  77.2462950  27.0845341  11.9375337
  71.3573522  10.9139185  16.8590231  71.9845561  10.5316263  17.4727756
  70.5001441  10.6953387  17.2245924  81.7567631  21.3202160  18.4643967
  82.3007535  21.9332119  17.9698921  81.1754476  21.8781739  18.9810980
  80.0425144  24.4422878   9.5958994  79.9176283  23.6412618   9.0869940
  80.7004235  24.9369072   9.1072964  82.1060052  22.2431899  11.2238544
  81.1590388  22.1237250  11.1516871  82.4542825  21.3554397  11.3064806
  74.4659625   8.1326037  15.0476786  74.9894027   8.3788334  15.8103096
  74.2471959   8.9646072  14.6279924  79.1106485  22.0384615   7.4242897
  78.9631448  21.1101322   7.6050467  79.9359979  22.0604705   6.9399972
  82.7140607  22.8613173   8.5107769  83.6387155  22.6556035   8.3732221
  82.5455911  22.6129575   9.4197111  75.6712170   9.0739733  12.7326457
  75.3308991   8.2747546  13.1347137  74.9651177   9.3741443  12.1603290
  77.5589735  10.2748054  11.0879776  77.3007512  11.1965124  11.0864106
  77.0274775   9.8778488  11.7780240  82.5035923  23.3798841   3.8669861
  82.6772801  22.8145263   3.1143713  82.9964815  24.1799736   3.6849351
  68.3212883  15.3913510  11.9333420  67.7766351  16.1673318  12.0653694
  69.1992233  15.7384314  11.7752541  69.1078905  14.5183406  14.8263577
  68.3660641  14.6666042  15.4128207  68.7871649  14.7791672  13.9630326
  77.0522568  24.0599384  14.6243967  77.3609694  23.8148531  15.4966666
  77.8498050  24.2646023  14.1362837  77.0743180  26.2137294   6.8549343
  76.6348170  25.7213673   7.5482200  77.8251297  25.6710262   6.6141418
  69.5535519  22.4048835   6.8573971  70.3793539  22.1052607   6.4772615
  69.2029571  21.6356457   7.3063760  74.5217052  21.7575303   8.9271645
  73.8997061  21.0946008   8.6273873  75.1921919  21.7836435   8.2445293
  74.5941579  10.2357091  18.5204151  74.6429735  11.1119214  18.1381920
  75.1364094   9.6934484  17.9475794  85.0796425  20.7798214  17.8005288
  84.2891969  20.7622353  17.2609787  84.8429780  21.3186508  18.5554325
  85.1994300  17.6290681  15.1138016  85.2492305  17.4640688  16.0553539
  85.0908223  16.7617940  14.7235897  82.4898062  13.6121609  16.4297323
  83.3907925  13.4728074  16.1381321  82.5646037  13.7776064  17.3695501
  76.8240868  10.9888464  15.2750509  75.9544177  11.2822030  15.0033098
  77.0600348  11.5728909  15.9957773  86.7012497  20.0487622  15.3580038
  86.4097305  20.4117603  16.1943499  86.0884628  19.3354631  15.1793370
  84.9499685  15.1720237  13.8260096  85.4253807  15.3647883  13.0178947
  84.0265251  15.2279423  13.5803480  79.5279902   7.2068081  12.7915930
  80.0461846   7.9429107  12.4662418  79.1735034   7.5132074  13.6262689
  83.6501354  12.0485997  12.0588402  84.6018777  12.1484095  12.0800626
  83.4804805  11.2564266  12.5686486  81.6715734   9.1341580  12.2447803
  81.0765666   9.4146593  11.5494291  81.3865430   9.6235481  13.0164544
  86.1289432  15.2692117  11.1730701  86.0965752  14.3308118  11.3590385
  86.7390056  15.3476153  10.4396526  77.8511455  18.1905916  18.6758562
  78.7714465  18.3684515  18.8698609  77.8161038  17.2461961  18.5238262
  70.8473528  16.1006951  11.3181343  71.0659538  17.0324058  11.3369377
  71.2599302  15.7414925  12.1036147  75.7201393  11.6740156  20.7084092
  75.6198120  12.6234513  20.6396183  75.5022935  11.3458395  19.8360162
  75.5832663  15.1037295  19.5249154  75.0999745  15.9037655  19.7313043
  75.6693602  15.1145240  18.5716598  71.5106001  18.9941830  11.5617588
  72.4649254  18.9625772  11.4947519  71.3118524  18.5332454  12.3767814
  72.1005383  17.5642946  14.1288385  72.9198272  18.0587025  14.1523223
  72.3742191  16.6474914  14.1005953  69.8656230  24.5361449   8.5787786
  69.7310697  23.7761850   8.0125784  69.4488292  25.2602349   8.1116575
  73.0225355  25.4330766   8.7906228  72.9057740  26.3776199   8.6884919
  72.2017802  25.1304328   9.1792028  67.3540297  11.8981080  14.8280583
  67.9999161  11.3880034  15.3167808  67.1457448  12.6349761  15.4024008
  79.8793689  18.9661927  20.3272723  80.7484849  19.1402580  19.9659358
  79.4000441  19.7856344  20.2048452  74.0479870  26.0859028  12.0062157
  74.9507116  26.1182639  12.3228652  73.8217240  25.1559479  12.0208493
  75.8033472  24.8390015   8.6672235  74.8529103  24.8391876   8.5536608
  76.1065958  24.0922749   8.1508270  71.6937788   9.0448697  18.9255597
  72.5569250   8.6885502  19.1358921  71.1203199   8.7062592  19.6131001
  91.5386165  30.6750553   9.7317998  92.1764575  30.5557301   9.0281338
  91.4207008  31.6231397   9.7905950  88.3475871  30.6277981   9.6679522
  88.0094383  30.5119046   8.7800057  89.2165640  30.2269146   9.6480529
  84.2062687  32.4813458   5.6576413  83.6427552  32.3903395   4.8892701
  84.0915082  31.6613362   6.1378906  88.8295654  31.7812833  15.6265728
  88.8184295  31.3865631  14.7546232  88.9916294  31.0478906  16.2199499
  81.7527119  33.9764649   8.4960634  82.5448411  33.6355474   8.0806933
  81.9923769  34.0859624   9.4162787  89.7862246  36.1484425   0.9690878
  89.1350225  36.7338506   0.5824892  90.5806609  36.6790620   1.0285916
  83.7117873  33.2373563   1.3678013  84.4848749  32.6902550   1.2290888
  84.0643272  34.1017812   1.5792474  85.5502915  34.5649945  14.5744912
  85.2592781  35.4695576  14.4591578  86.1859900  34.6066472  15.2888982
  86.4759122  31.9426793  11.1646272  87.0722695  31.7182816  10.4503235
  86.5334094  31.2011539  11.7671719  91.0927434  28.4002007   6.8071206
  91.8790523  27.9821430   6.4561623  91.3566138  29.3048099   6.9752854
  85.7680439  31.2994335   1.2020838  85.6516698  30.6239238   1.8701922
  85.8782699  30.8126709   0.3852991  88.1111980  30.7604482   4.9067527
  87.7470188  30.2335103   5.6180448  88.9679096  30.3702951   4.7334012
  94.0161281  22.0498814  12.1698793  93.6844606  22.9194225  11.9460008
  93.4206894  21.7335098  12.8492823  90.5092801  34.2511360  11.5694706
  90.2093524  35.1536399  11.4610513  90.1643860  33.9843544  12.4215859
  83.9605282  30.7025157   7.6031410  83.0355778  30.5701371   7.8109102
  84.2089695  31.4819376   8.1001352  93.9089944  26.7693901   9.2492143
  93.0006822  26.7009309   8.9550904  93.8577540  27.2465845  10.0773968
  81.3214093  30.3458431   8.4375199  81.4506474  30.5992910   9.3514611
  80.6411544  30.9386139   8.1179854  85.4913580  41.0155681   4.5365673
  85.4137610  41.9663506   4.6154154  84.8875224  40.6701553   5.1940600
  87.9830810  28.1883546  17.1927040  87.2064144  28.7477466  17.1829905
  88.6221373  28.6740329  17.7141910  95.7751591  24.9710339  11.0270017
  95.1325971  25.2642872  10.3809811  95.2706519  24.8563259  11.8323214
  86.2377182  30.9968999  16.7545007  86.9791867  31.5354043  16.4779831
  85.5314168  31.6235288  16.9116559  91.7132522  33.1398140  15.3517169
  92.1215878  32.6980550  14.6071801  90.9909784  32.5650767  15.6051362
  88.0663592  28.0770747  12.7250726  88.9124787  28.5010160  12.8685375
  88.0062230  27.4204371  13.4189289  92.0361337  33.6999331   9.1069458
  91.4070199  33.8645045   8.4045525  91.6486999  34.1140940   9.8780422
  95.9150569  34.6353768   6.4613821  95.2301607  35.0152670   5.9110855
  95.9994418  35.2449095   7.1945769  91.2163037  25.7375115  14.3831899
  90.9723969  26.4917176  13.8466175  91.4922968  26.1160463  15.2179146
  93.1701500  32.2813727  13.0609165  93.3818395  32.9245487  12.3843546
  93.1231248  31.4476044  12.5931095  90.7727729  24.8931548   9.9645737
  89.9112208  25.1912802  10.2562475  90.7990164  25.1101947   9.0326770
  87.5889299  33.4373739   6.3719543  88.0527644  33.7161442   5.5824165
  87.3246097  32.5357183   6.1892633  84.4813380  32.9845220   9.3099306
  85.0514737  33.4132489   8.6716790  85.0721491  32.7027805  10.0083492
  86.5258185  29.5596891   3.1809108  87.2282228  30.0117935   3.6483034
  86.1938813  28.9180710   3.8089001  84.9738546  28.1508648  17.5560317
  84.3437207  28.8324929  17.7895714  84.8674634  28.0391729  16.6113455
  80.2683519  27.8180444   8.4826241  79.4782573  28.0737972   8.0066352
  80.7594766  28.6328782   8.5878282  94.2847328  35.1585683  11.2331522
  95.1064772  34.7565870  10.9514204  94.2809731  35.0553917  12.1847638
  82.2198264  28.1825023   5.4409718  81.4229427  28.2943717   5.9593214
  81.9923856  28.5211675   4.5750609  88.0503932  34.7069726  13.3892233
  88.1148364  35.1690133  14.2250405  87.3414855  34.0767091  13.5174543
  78.5521222  28.0710934  10.9141232  78.8029260  28.9557944  11.1798808
  79.0880770  27.8915536  10.1416324  87.7651949  36.3737834   3.2571213
  87.6297624  37.2189369   3.6856061  88.3061762  36.5757111   2.4937147
  84.2519289  22.4529413  19.9185568  83.8586234  21.8995612  20.5933213
  85.0685429  22.7639992  20.3092086  81.2181347  33.8913272   3.8299138
  81.7305867  34.6856522   3.9804703  81.8704059  33.1939562   3.7632740
  83.0276231  37.0079028   5.9121891  83.2042860  37.9296993   5.7242875
  83.8233065  36.6937447   6.3416271  87.1687250  23.8687293  17.5105825
  87.9096963  24.4694446  17.4310287  87.4005173  23.1264930  16.9523867
  82.3128588  29.0543660  15.7884055  82.1982103  28.1528917  16.0891153
  81.4573106  29.3007357  15.4368871  89.3920426  36.9961400  17.3871555
  88.9484280  36.2097779  17.0692460  90.0537639  37.1840551  16.7215446
  84.1507547  38.5257202  11.9132234  84.7014972  38.3974265  11.1409228
  83.3119023  38.8252091  11.5627126  91.4901664  37.2764200  15.4152956
  91.4720139  38.0973081  14.9233226  92.4121584  37.1518275  15.6403098
  87.9474718  34.7908330  16.2576465  88.4803055  34.0296618  16.0275773
  87.4188799  34.4981981  17.0000619  91.1144413  19.8968396  11.7870107
  90.7708682  20.7870037  11.7109217  91.4823375  19.7070053  10.9239692
  79.1830263  32.2201926   4.6058709  80.0205485  32.6298934   4.3892416
  79.3608531  31.2801368   4.5758903  90.1940953  22.2673051   9.7519340
  89.6905749  22.2303186   8.9387145  90.4871560  23.1765793   9.8115996
  86.4383839  22.3511780   8.7585522  87.3036836  22.1554589   8.3991411
  86.5061348  22.1222132   9.6854878  89.3127431  33.9194322   3.7695277
  88.7848792  33.1847082   3.4568514  88.8114933  34.6968998   3.5235245
  94.2920277  32.1143343   8.8862323  93.6343951  32.8042604   8.9742452
  95.0960676  32.5039774   9.2296309  84.0446158  24.5813988   6.1301888
  84.6189910  24.3589170   5.3975081  84.6317141  24.6502683   6.8830490
  93.1025735  30.4687715   6.9366265  93.6157617  31.1017707   7.4387975
  93.7526959  29.8688911   6.5709625  90.3648110  40.4472039  -0.3073064
  89.6909808  40.7503736   0.3011894  90.7513932  41.2501120  -0.6567607
  89.5806566  27.9437171   9.1824605  88.6629128  28.1652118   9.0246293
  89.9966710  28.0183481   8.3236313  93.8687532  35.4493717   5.0645407
  93.4149859  34.6084627   5.1210598  93.2381498  36.0855115   5.4020188
  92.3120471  37.2870213   5.9995226  92.6043445  37.8475270   5.2807591
  92.8219091  37.5798774   6.7548385  79.2056435  29.5592641   5.2769442
  79.0080834  28.9662002   4.5520509  78.6503099  29.2544851   5.9945381
  87.1853158  29.4515748   7.3964035  87.2401768  28.4989584   7.3206512
  86.3744360  29.6075187   7.8805334  85.1245518  28.0692808   5.1554414
  84.3113384  28.3686978   5.5619606  85.6204512  27.6748496   5.8728896
  87.2754096  38.0650564   7.0888679  87.2330275  38.2911411   6.1597211
  88.1916795  37.8313939   7.2374480  90.7219730  28.5334632  13.9869308
  91.0769118  28.7606105  14.8463774  91.3691861  28.8653009  13.3646563
  84.6159593  25.6411163  10.7715649  85.2558972  25.4999922  10.0738612
  83.7837123  25.3545676  10.3954251  96.4786846  33.7229595   9.7029909
  96.9123353  33.6304884  10.5512963  97.1918427  33.6987095   9.0649925
  85.3919897  34.9413593   6.8850642  86.1860495  34.4463914   6.6833217
  84.6811589  34.4131457   6.5218347  90.2114741  37.3231689  11.2363009
  90.2651764  37.8922625  12.0040725  89.3429523  37.4933574  10.8717046
  81.7002660  29.0856675   2.9610394  80.7700248  29.0241131   3.1780356
  81.7960132  28.5632628   2.1647035  81.6188209  25.6111488   5.5488636
  81.8795027  26.5256821   5.4397796  82.4405382  25.1435931   5.6985249
  83.0913135  27.0249245  12.7187460  83.7636188  26.8166607  12.0700109
  82.2642921  26.8271331  12.2792693  97.3402396  33.7653296  12.2362794
  97.5338286  34.6699106  12.4822069  97.2403014  33.3060715  13.0701379
  88.9938707  23.6511186  14.7353121  88.3466622  24.3501136  14.6417598
  89.7639722  24.0847330  15.1029370  92.4017505  33.9160038  17.8103675
  92.2503011  33.6870590  16.8933758  92.3922184  34.8730640  17.8235020
  89.1702841  31.4891951  12.7949941  90.0994901  31.6403111  12.6218908
  88.7493871  31.5775972  11.9398588  87.9691173  35.5142615  10.5648479
  87.8302258  35.1461400  11.4374417  87.1805769  36.0290255  10.3932436
  88.5639325  40.6151712   1.9074015  88.7391080  40.1439755   2.7219638
  87.8772113  41.2417478   2.1355276  89.5196388  34.8924218   7.9537316
  89.1846221  34.8524988   8.8494966  89.0200334  34.2268934   7.4807727
  83.4940632  30.2991848  13.4789898  83.3560430  29.5672087  14.0801437
  84.4045555  30.2100748  13.1974085  86.1222933  30.0111808  12.9673577
  86.8322551  29.3705000  12.9260196  86.0792241  30.2624702  13.8899758
  94.1109711  36.9479161  15.8880156  94.0522257  36.2638381  15.2210739
  94.5129230  37.6898151  15.4360782  84.8351867  26.9977025  14.7869217
  84.2989224  26.5467764  15.4390813  84.2468575  27.1322934  14.0439681
  83.1300410  43.7641075   8.6813875  83.3697008  44.3959599   9.3592894
  82.2869607  43.4129115   8.9679235  94.1127119  34.9118745  14.1194136
  93.2253897  34.5744667  14.2420535  94.6825670  34.1801776  14.3562902
  75.7656266  31.2442837   7.4437188  76.4527305  30.9304567   6.8558203
  75.6104394  32.1484201   7.1704439  80.5690988  26.1333033  11.8722211
  80.4849177  25.5258703  11.1372621  79.7473694  26.6242051  11.8731708
  87.6428272  39.5720197  11.0855379  87.5698443  40.3775169  11.5974684
  87.2005665  39.7712163  10.2603401  87.4318052  38.8091967   4.5958201
  86.6485573  39.3513647   4.6896425  88.1310797  39.3265947   4.9952442
  90.1026955  39.4707031  13.2413538  90.8154928  40.1054496  13.1689439
  89.6116984  39.5670897  12.4253540  91.8244482  33.3758284   4.8130830
  90.8900761  33.4959746   4.6435534  92.0021151  32.4730751   4.5490840
  87.3249670  26.7603980   6.9664091  86.9547458  26.2075020   7.6544996
  87.8208763  26.1562113   6.4139091  85.1538869  37.2201475  14.0619109
  85.8548328  37.8537958  14.2148503  84.6833984  37.5616206  13.3014748
  92.9540155  29.7746082  11.8871659  92.3011605  30.0221990  11.2324112
  93.3320535  28.9610220  11.5534136  89.9147329  39.8105775   5.9899829
  90.0969723  38.9927431   6.4527582  90.7380315  40.0273467   5.5524719
  90.2489494  38.7373960   3.2514878  90.7777261  38.2266415   2.6385040
  90.5117714  38.4216491   4.1160411  89.0027728  30.5165893  18.3737696
  88.3268365  30.4160022  19.0440071  89.8255362  30.3605107  18.8373693
  80.7506587  36.7537830  10.9950211  81.3360024  36.0081518  11.1278116
  80.5531425  37.0641786  11.8786875  83.6045242  39.7889077   6.0112654
  82.9355618  40.2735205   5.5276694  83.4658112  40.0358298   6.9256032
  75.3424242  29.3243430   9.7154655  75.3808341  28.7907021  10.5091773
  74.8364535  28.7978635   9.0965632  87.7450511  41.8232821  12.6095312
  88.2968819  41.9864442  13.3744397  88.0856704  42.4137258  11.9375337
  82.7215004  24.1707970  13.2117197  82.7856331  25.0322801  12.7994595
  82.6582124  23.5581972  12.4789555  82.1967277  26.2431103  16.8590231
  82.8239315  25.8608180  17.4727756  81.3395195  26.0245305  17.2245924
  92.5961385  36.6494078  18.4643967  93.1401289  37.2624036  17.9698921
  92.0148230  37.2073656  18.9810980  78.9732819  28.0507532   2.7908586
  79.2686260  27.1418210   2.7375640  78.0720855  28.0295271   2.4689588
  90.8818898  39.7714796   9.5958994  90.7570038  38.9704536   9.0869940
  91.5397989  40.2660989   9.1072964  82.5027066  26.1263529   8.7736135
  81.7813652  26.7399496   8.6343608  83.2920322  26.6621293   8.6952781
  92.9453807  37.5723816  11.2238544  91.9984142  37.4529167  11.1516871
  93.2936580  36.6846314  11.3064806  85.3053380  23.4617955  15.0476786
  85.8287782  23.7080252  15.8103096  85.0865713  24.2937990  14.6279924
  80.7020661  25.7321630   2.9147911  80.3733367  24.8519009   2.7323017
  81.0560032  25.6769298   3.8024300  89.9500240  37.3676532   7.4242897
  89.8025202  36.4393240   7.6050467  90.7753733  37.3896623   6.9399972
  83.8162484  26.0194599   3.2823389  84.1558557  26.5480521   2.5601997
  84.2634605  26.3575006   4.0581955  93.5534362  38.1905091   8.5107769
  94.4780909  37.9847952   8.3732221  93.3849665  37.9421492   9.4197111
  86.5105925  24.4031650  12.7326457  86.1702745  23.6039463  13.1347137
  85.8044931  24.7033361  12.1603290  87.1622397  21.4880963  11.1853780
  87.9848466  21.0141441  11.0632670  87.4060460  22.2671446  11.6852466
  84.6860976  28.1800083   8.9945759  84.5405556  28.4940386   9.8870040
  84.2086179  28.7984984   8.4416657  86.5457358  25.1702631   9.0426648
  86.5318927  24.2743725   8.7058946  87.2629786  25.1773295   9.6764934
  88.3983489  25.6039971  11.0879776  88.1401267  26.5257042  11.0864106
  87.8668529  25.2070406  11.7780240  93.3429678  38.7090759   3.8669861
  93.5166555  38.1437181   3.1143713  93.8358569  39.5091653   3.6849351
  79.1606638  30.7205428  11.9333420  78.6160106  31.4965236  12.0653694
  80.0385988  31.0676232  11.7752541  85.9494254  24.0517012   4.3114218
  86.0710166  23.1233658   4.5105106  85.6596297  24.0655698   3.3992534
  79.9472660  29.8475324  14.8263577  79.2054396  29.9957959  15.4128207
  79.6265404  30.1083590  13.9630326  87.8916322  39.3891302  14.6243967
  88.2003449  39.1440449  15.4966666  88.6891804  39.5937941  14.1362837
  87.9136934  41.5429212   6.8549343  87.4741925  41.0505590   7.5482200
  88.6645051  41.0002179   6.6141418  80.3929273  37.7340753   6.8573971
  81.2187293  37.4344525   6.4772615  80.0423325  36.9648375   7.3063760
  85.3610806  37.0867221   8.9271645  84.7390816  36.4237926   8.6273873
  86.0315673  37.1128353   8.2445293  78.5937878  35.6527079   7.8162905
  77.7569787  35.2249253   7.6346906  78.5661524  35.8459522   8.7533696
  85.4335334  25.5649009  18.5204151  85.4823489  26.4411132  18.1381920
  85.9757848  25.0226402  17.9475794  95.9190180  36.1090132  17.8005288
  95.1285723  36.0914271  17.2609787  95.6823534  36.6478426  18.5554325
  96.0388055  32.9582599  15.1138016  96.0886060  32.7932606  16.0553539
  95.9301978  32.0909858  14.7235897  84.9224313  35.6371144   2.4030105
  85.0712434  36.3206609   1.7496778  85.7290757  35.6176234   2.9179561
  93.3291817  28.9413527  16.4297323  94.2301680  28.8019991  16.1381321
  93.4039791  29.1067981  17.3695501  87.6634622  26.3180381  15.2750509
  86.7937932  26.6113947  15.0033098  87.8994103  26.9020826  15.9957773
  97.5406251  35.3779540  15.3580038  97.2491060  35.7409521  16.1943499
  96.9278383  34.6646548  15.1793370  95.7893440  30.5012155  13.8260096
  96.2647561  30.6939801  13.0178947  94.8659005  30.5571341  13.5803480
  82.6776946  31.6636322   3.4091174  82.4322988  30.7598652   3.6071384
  82.8472861  31.6653472   2.4670652  90.3673656  22.5359998  12.7915930
  90.8855600  23.2721025  12.4662418  90.0128789  22.8423992  13.6262689
  81.9472594  27.3964679   0.9077336  81.2541839  27.4709034   0.2517372
  81.7024346  26.6325023   1.4298853  88.4219719  38.1319275  -0.1258147
  87.8493686  38.7509462  -0.5787675  88.9952512  38.6818636   0.4081775
  94.4895109  27.3777915  12.0588402  95.4412532  27.4776012  12.0800626
  94.3198559  26.5856183  12.5686486  92.5109488  24.4633498  12.2447803
  91.9159420  24.7438511  11.5494291  92.2259185  24.9527399  13.0164544
  91.6416979  38.4156425   1.0050435  92.5747652  38.3501986   1.2083311
  91.5540191  39.2512692   0.5464968  96.9683186  30.5984034  11.1730701
  96.9359507  29.6600035  11.3590385  97.5783810  30.6768071  10.4396526
  88.6905210  33.5197834  18.6758562  89.6108219  33.6976433  18.8698609
  88.6554793  32.5753879  18.5238262  77.9087375  28.7136427   7.6011837
  77.5890159  27.8601735   7.3086211  77.3620803  28.9285005   8.3569804
  81.6867282  31.4298868  11.3181343  81.9053292  32.3615976  11.3369377
  82.0993056  31.0706843  12.1036147  86.5595148  27.0032074  20.7084092
  86.4591875  27.9526431  20.6396183  86.3416690  26.6750313  19.8360162
  77.7775635  32.3339339   9.5704958  77.0839106  31.9193292   9.0574913
  78.5248626  32.3759875   8.9738377  86.4226418  30.4329213  19.5249154
  85.9393499  31.2329573  19.7313043  86.5087357  30.4437158  18.5716598
  79.6912377  32.2657592   7.4470973  79.6683065  32.3645280   6.4952856
  80.0013014  33.1122743   7.7688140  82.3499755  34.3233748  11.5617588
  83.3043009  34.2917690  11.4947519  82.1512279  33.8624371  12.3767814
  82.9399137  32.8934864  14.1288385  83.7592026  33.3878942  14.1523223
  83.2135945  31.9766832  14.1005953  80.7049984  39.8653367   8.5787786
  80.5704452  39.1053768   8.0125784  80.2882046  40.5894267   8.1116575
  83.8619110  40.7622684   8.7906228  83.7451494  41.7068117   8.6884919
  83.0411556  40.4596246   9.1792028  78.1934052  27.2272997  14.8280583
  78.8392915  26.7171951  15.3167808  77.9851203  27.9641679  15.4024008
  90.7187444  34.2953845  20.3272723  91.5878603  34.4694497  19.9659358
  90.2394195  35.1148262  20.2048452  84.8873624  41.4150946  12.0062157
  85.7900871  41.4474556  12.3228652  84.6610994  40.4851397  12.0208493
  86.6427226  40.1681932   8.6672235  85.6922857  40.1683794   8.5536608
  86.9459712  39.4214667   8.1508270  82.5331543  24.3740615  18.9255597
  83.3963004  24.0177419  19.1358921  81.9596953  24.0354509  19.6131001
 102.3779920  46.0042471   9.7317998 103.0158329  45.8849218   9.0281338
 102.2600762  46.9523315   9.7905950  99.1869626  45.9569899   9.6679522
  98.8488137  45.8410964   8.7800057 100.0559394  45.5561064   9.6480529
  95.0456442  47.8105375   5.6576413  94.4821307  47.7195312   4.8892701
  94.9308837  46.9905280   6.1378906  99.6689409  47.1104751  15.6265728
  99.6578050  46.7157549  14.7546232  99.8310048  46.3770823  16.2199499
  92.5920873  49.3056567   8.4960634  93.3842165  48.9647392   8.0806933
  92.8317524  49.4151542   9.4162787 100.6256000  51.4776343   0.9690878
  99.9743980  52.0630423   0.5824892 101.4200363  52.0082538   1.0285916
  94.5511627  48.5665480   1.3678013  95.3242503  48.0194467   1.2290888
  94.9037026  49.4309730   1.5792474  96.3896670  49.8941862  14.5744912
  96.0986536  50.7987493  14.4591578  97.0253654  49.9358390  15.2888982
  97.3152877  47.2718711  11.1646272  97.9116449  47.0474733  10.4503235
  97.3727848  46.5303456  11.7671719 101.9321188  43.7293925   6.8071206
 102.7184277  43.3113348   6.4561623 102.1959892  44.6340017   6.9752854
  96.6074194  46.6286252   1.2020838  96.4910452  45.9531156   1.8701922
  96.7176454  46.1418626   0.3852991  98.9505735  46.0896399   4.9067527
  98.5863942  45.5627020   5.6180448  99.8072851  45.6994868   4.7334012
 104.8555035  37.3790732  12.1698793 104.5238360  38.2486143  11.9460008
 104.2600649  37.0627016  12.8492823 101.3486555  49.5803278  11.5694706
 101.0487278  50.4828317  11.4610513 101.0037615  49.3135461  12.4215859
  94.7999037  46.0317075   7.6031410  93.8749533  45.8993289   7.8109102
  95.0483450  46.8111294   8.1001352 104.7483699  42.0985818   9.2492143
 103.8400576  42.0301227   8.9550904 104.6971295  42.5757763  10.0773968
  92.1607848  45.6750348   8.4375199  92.2900229  45.9284827   9.3514611
  91.4805299  46.2678056   8.1179854  96.3307335  56.3447598   4.5365673
  96.2531365  57.2955423   4.6154154  95.7268978  55.9993471   5.1940600
  98.8224565  43.5175464  17.1927040  98.0457899  44.0769384  17.1829905
  99.4615128  44.0032247  17.7141910 106.6145345  40.3002257  11.0270017
 105.9719725  40.5934790  10.3809811 106.1100274  40.1855177  11.8323214
  97.0770937  46.3260917  16.7545007  97.8185621  46.8645961  16.4779831
  96.3707922  46.9527206  16.9116559 102.5526277  48.4690058  15.3517169
 102.9609633  48.0272468  14.6071801 101.8303538  47.8942685  15.6051362
  98.9057347  43.4062664  12.7250726  99.7518542  43.8302078  12.8685375
  98.8455984  42.7496289  13.4189289 102.8755091  49.0291248   9.1069458
 102.2463954  49.1936962   8.4045525 102.4880753  49.4432858   9.8780422
 106.7544323  49.9645686   6.4613821 106.0695361  50.3444587   5.9110855
 106.8388172  50.5741013   7.1945769 102.0556792  41.0667033  14.3831899
 101.8117724  41.8209093  13.8466175 102.3316722  41.4452380  15.2179146
 104.0095255  47.6105645  13.0609165 104.2212150  48.2537405  12.3843546
 103.9625003  46.7767962  12.5931095 101.6121484  40.2223466   9.9645737
 100.7505963  40.5204719  10.2562475 101.6383918  40.4393865   9.0326770
  98.4283053  48.7665656   6.3719543  98.8921399  49.0453359   5.5824165
  98.1639851  47.8649101   6.1892633  95.3207134  48.3137138   9.3099306
  95.8908491  48.7424406   8.6716790  95.9115246  48.0319723  10.0083492
  97.3651939  44.8888809   3.1809108  98.0675982  45.3409852   3.6483034
  97.0332568  44.2472628   3.8089001  95.8132301  43.4800565  17.5560317
  95.1830961  44.1616846  17.7895714  95.7068389  43.3683647  16.6113455
  91.1077273  43.1472361   8.4826241  90.3176327  43.4029890   8.0066352
  91.5988520  43.9620699   8.5878282 105.1241083  50.4877601  11.2331522
 105.9458526  50.0857788  10.9514204 105.1203486  50.3845835  12.1847638
  93.0592018  43.5116941   5.4409718  92.2623182  43.6235635   5.9593214
  92.8317611  43.8503593   4.5750609  98.8897686  50.0361644  13.3892233
  98.9542119  50.4982051  14.2250405  98.1808610  49.4059009  13.5174543
  89.3914976  43.4002852  10.9141232  89.6423014  44.2849862  11.1798808
  89.9274524  43.2207453  10.1416324  98.6045704  51.7029751   3.2571213
  98.4691379  52.5481287   3.6856061  99.1455516  51.9049029   2.4937147
  95.0913043  37.7821331  19.9185568  94.6979989  37.2287530  20.5933213
  95.9079184  38.0931910  20.3092086  92.0575101  49.2205189   3.8299138
  92.5699622  50.0148440   3.9804703  92.7097814  48.5231480   3.7632740
  93.8669986  52.3370946   5.9121891  94.0436614  53.2588910   5.7242875
  94.6626819  52.0229365   6.3416271  98.0081004  39.1979210  17.5105825
  98.7490718  39.7986363  17.4310287  98.2398927  38.4556848  16.9523867
  93.1522342  44.3835578  15.7884055  93.0375858  43.4820835  16.0891153
  92.2966860  44.6299274  15.4368871 100.2314180  52.3253318  17.3871555
  99.7878034  51.5389696  17.0692460 100.8931394  52.5132468  16.7215446
  94.9901301  53.8549119  11.9132234  95.5408726  53.7266183  11.1409228
  94.1512777  54.1544008  11.5627126 102.3295418  52.6056118  15.4152956
 102.3113894  53.4264999  14.9233226 103.2515338  52.4810193  15.6403098
  98.7868472  50.1200247  16.2576465  99.3196809  49.3588535  16.0275773
  98.2582553  49.8273899  17.0000619 101.9538167  35.2260313  11.7870107
 101.6102437  36.1161955  11.7109217 102.3217130  35.0361971  10.9239692
  90.0224018  47.5493844   4.6058709  90.8599240  47.9590852   4.3892416
  90.2002286  46.6093286   4.5758903 101.0334708  37.5964968   9.7519340
 100.5299503  37.5595104   8.9387145 101.3265315  38.5057711   9.8115996
  97.2777594  37.6803698   8.7585522  98.1430590  37.4846507   8.3991411
  97.3455102  37.4514050   9.6854878 100.1521185  49.2486240   3.7695277
  99.6242547  48.5138999   3.4568514  99.6508688  50.0260916   3.5235245
 105.1314031  47.4435260   8.8862323 104.4737706  48.1334522   8.9742452
 105.9354430  47.8331692   9.2296309  94.8839913  39.9105906   6.1301888
  95.4583665  39.6881087   5.3975081  95.4710895  39.9794601   6.8830490
 103.9419490  45.7979633   6.9366265 104.4551372  46.4309625   7.4387975
 104.5920714  45.1980828   6.5709625 100.4200321  43.2729088   9.1824605
  99.5022882  43.4944035   9.0246293 100.8360464  43.3475399   8.3236313
 104.7081286  50.7785634   5.0645407 104.2543613  49.9376544   5.1210598
 104.0775253  51.4147033   5.4020188 103.1514225  52.6162131   5.9995226
 103.4437200  53.1767188   5.2807591 103.6612846  52.9090692   6.7548385
  90.0450189  44.8884559   5.2769442  89.8474589  44.2953920   4.5520509
  89.4896853  44.5836769   5.9945381  98.0246913  44.7807665   7.3964035
  98.0795522  43.8281502   7.3206512  97.2138115  44.9367105   7.8805334
  95.9639273  43.3984725   5.1554414  95.1507138  43.6978896   5.5619606
  96.4598267  43.0040414   5.8728896  98.1147851  53.3942482   7.0888679
  98.0724029  53.6203328   6.1597211  99.0310549  53.1605857   7.2374480
 101.5613484  43.8626550  13.9869308 101.9162872  44.0898023  14.8463774
 102.2085616  44.1944926  13.3646563  95.4553347  40.9703081  10.7715649
  96.0952727  40.8291840  10.0738612  94.6230878  40.6837594  10.3954251
 107.3180601  49.0521513   9.7029909 107.7517108  48.9596802  10.5512963
 108.0312182  49.0279013   9.0649925  96.2313651  50.2705511   6.8850642
  97.0254250  49.7755831   6.6833217  95.5205344  49.7423374   6.5218347
 101.0508496  52.6523607  11.2363009 101.1045518  53.2214543  12.0040725
 100.1823277  52.8225492  10.8717046  92.5396415  44.4148593   2.9610394
  91.6094003  44.3533048   3.1780356  92.6353887  43.8924546   2.1647035
  92.4581964  40.9403406   5.5488636  92.7188781  41.8548739   5.4397796
  93.2799136  40.4727848   5.6985249  93.9306889  42.3541163  12.7187460
  94.6029943  42.1458525  12.0700109  93.1036676  42.1563249  12.2792693
 108.1796150  49.0945213  12.2362794 108.3732041  49.9991024  12.4822069
 108.0796769  48.6352632  13.0701379  99.8332461  38.9803104  14.7353121
  99.1860376  39.6793053  14.6417598 100.6033477  39.4139248  15.1029370
 103.2411259  49.2451956  17.8103675 103.0896766  49.0162508  16.8933758
 103.2315939  50.2022557  17.8235020 100.0096596  46.8183869  12.7949941
 100.9388656  46.9695028  12.6218908  99.5887626  46.9067889  11.9398588
  98.8084927  50.8434533  10.5648479  98.6696013  50.4753318  11.4374417
  98.0199524  51.3582173  10.3932436  99.4033079  55.9443630   1.9074015
  99.5784835  55.4731673   2.7219638  98.7165867  56.5709396   2.1355276
 100.3590142  50.2216136   7.9537316 100.0239975  50.1816906   8.8494966
  99.8594088  49.5560852   7.4807727  94.3334386  45.6283766  13.4789898
  94.1954184  44.8964005  14.0801437  95.2439310  45.5392666  13.1974085
  96.9616687  45.3403725  12.9673577  97.6716306  44.6996917  12.9260196
  96.9185995  45.5916620  13.8899758 104.9503466  52.2771079  15.8880156
 104.8916012  51.5930299  15.2210739 105.3522984  53.0190069  15.4360782
  95.6745621  42.3268943  14.7869217  95.1382978  41.8759682  15.4390813
  95.0862329  42.4614852  14.0439681  93.9694165  59.0932992   8.6813875
  94.2090763  59.7251517   9.3592894  93.1263361  58.7421032   8.9679235
 104.9520873  50.2410662  14.1194136 104.0647652  49.9036584  14.2420535
 105.5219424  49.5093694  14.3562902  86.6050020  46.5734754   7.4437188
  87.2921060  46.2596484   6.8558203  86.4498149  47.4776119   7.1704439
  91.4084742  41.4624951  11.8722211  91.3242931  40.8550620  11.1372621
  90.5867449  41.9533969  11.8731708  98.4822026  54.9012115  11.0855379
  98.4092198  55.7067086  11.5974684  98.0399420  55.1004081  10.2603401
  98.2711806  54.1383885   4.5958201  97.4879328  54.6805565   4.6896425
  98.9704551  54.6557864   4.9952442 100.9420710  54.7998949  13.2413538
 101.6548682  55.4346414  13.1689439 100.4510739  54.8962815  12.4253540
 102.6638237  48.7050202   4.8130830 101.7294516  48.8251664   4.6435534
 102.8414905  47.8022668   4.5490840  98.1643425  42.0895897   6.9664091
  97.7941212  41.5366938   7.6544996  98.6602517  41.4854031   6.4139091
  95.9932623  52.5493392  14.0619109  96.6942083  53.1829875  14.2148503
  95.5227738  52.8908124  13.3014748 103.7933909  45.1038000  11.8871659
 103.1405360  45.3513907  11.2324112 104.1714289  44.2902138  11.5534136
 100.7541083  55.1397693   5.9899829 100.9363478  54.3219349   6.4527582
 101.5774069  55.3565385   5.5524719 101.0883249  54.0665878   3.2514878
 101.6171015  53.5558333   2.6385040 101.3511468  53.7508408   4.1160411
  99.8421482  45.8457811  18.3737696  99.1662119  45.7451940  19.0440071
 100.6649116  45.6897025  18.8373693  91.5900342  52.0829747  10.9950211
  92.1753778  51.3373435  11.1278116  91.3925180  52.3933704  11.8786875
  94.4438997  55.1180995   6.0112654  93.7749372  55.6027122   5.5276694
  94.3051866  55.3650215   6.9256032  86.1817996  44.6535348   9.7154655
  86.2202096  44.1198938  10.5091773  85.6758289  44.1270553   9.0965632
  98.5844265  57.1524738  12.6095312  99.1362573  57.3156360  13.3744397
  98.9250459  57.7429176  11.9375337  93.5608759  39.4999888  13.2117197
  93.6250085  40.3614719  12.7994595  93.4975879  38.8873890  12.4789555
  93.0361031  41.5723021  16.8590231  93.6633070  41.1900098  17.4727756
  92.1788950  41.3537223  17.2245924 103.4355140  51.9785996  18.4643967
 103.9795044  52.5915954  17.9698921 102.8541985  52.5365574  18.9810980
  89.8126574  43.3799450   2.7908586  90.1080015  42.4710128   2.7375640
  88.9114610  43.3587189   2.4689588 101.7212653  55.1006714   9.5958994
 101.5963792  54.2996454   9.0869940 102.3791744  55.5952907   9.1072964
  93.3420821  41.4555446   8.7736135  92.6207407  42.0691414   8.6343608
  94.1314077  41.9913211   8.6952781 103.7847561  52.9015734  11.2238544
 102.8377897  52.7821085  11.1516871 104.1330334  52.0138232  11.3064806
  96.1447134  38.7909873  15.0476786  96.6681536  39.0372169  15.8103096
  95.9259468  39.6229908  14.6279924  91.5414415  41.0613547   2.9147911
  91.2127122  40.1810926   2.7323017  91.8953786  41.0061216   3.8024300
 100.7893994  52.6968450   7.4242897 100.6418957  51.7685157   7.6050467
 101.6147488  52.7188541   6.9399972  94.6556239  41.3486517   3.2823389
  94.9952311  41.8772438   2.5601997  95.1028359  41.6866923   4.0581955
 104.3928116  53.5197009   8.5107769 105.3174664  53.3139870   8.3732221
 104.2243420  53.2713410   9.4197111  97.3499679  39.7323568  12.7326457
  97.0096500  38.9331381  13.1347137  96.6438686  40.0325279  12.1603290
  98.0016151  36.8172880  11.1853780  98.8242221  36.3433359  11.0632670
  98.2454215  37.5963364  11.6852466  95.5254730  43.5092001   8.9945759
  95.3799311  43.8232304   9.8870040  95.0479934  44.1276901   8.4416657
  97.3851113  40.4994549   9.0426648  97.3712682  39.6035642   8.7058946
  98.1023541  40.5065213   9.6764934  99.2377244  40.9331889  11.0879776
  98.9795021  41.8548960  11.0864106  98.7062284  40.5362324  11.7780240
 104.1823432  54.0382676   3.8669861 104.3560310  53.4729099   3.1143713
 104.6752324  54.8383571   3.6849351  90.0000392  46.0497345  11.9333420
  89.4553860  46.8257153  12.0653694  90.8779742  46.3968150  11.7752541
  96.7888009  39.3808929   4.3114218  96.9103920  38.4525575   4.5105106
  96.4990051  39.3947615   3.3992534  90.7866414  45.1767242  14.8263577
  90.0448150  45.3249877  15.4128207  90.4659158  45.4375507  13.9630326
  98.7310077  54.7183220  14.6243967  99.0397203  54.4732367  15.4966666
  99.5285559  54.9229858  14.1362837  98.7530689  56.8721129   6.8549343
  98.3135679  56.3797508   7.5482200  99.5038806  56.3294097   6.6141418
  91.2323028  53.0632670   6.8573971  92.0581048  52.7636442   6.4772615
  90.8817080  52.2940293   7.3063760  96.2004561  52.4159139   8.9271645
  95.5784570  51.7529844   8.6273873  96.8709428  52.4420270   8.2445293
  89.4331633  50.9818997   7.8162905  88.5963541  50.5541171   7.6346906
  89.4055278  51.1751440   8.7533696  96.2729088  40.8940927  18.5204151
  96.3217244  41.7703049  18.1381920  96.8151603  40.3518320  17.9475794
 106.7583934  51.4382050  17.8005288 105.9679478  51.4206189  17.2609787
 106.5217289  51.9770344  18.5554325 106.8781809  48.2874516  15.1138016
 106.9279814  48.1224524  16.0553539 106.7695732  47.4201775  14.7235897
  95.7618068  50.9663062   2.4030105  95.9106188  51.6498526   1.7496778
  96.5684511  50.9468152   2.9179561 104.1685571  44.2705444  16.4297323
 105.0695434  44.1311909  16.1381321 104.2433546  44.4359899  17.3695501
  98.5028377  41.6472299  15.2750509  97.6331686  41.9405865  15.0033098
  98.7387857  42.2312744  15.9957773 108.3800006  50.7071458  15.3580038
 108.0884814  51.0701438  16.1943499 107.7672137  49.9938466  15.1793370
 106.6287194  45.8304072  13.8260096 107.1041316  46.0231719  13.0178947
 105.7052760  45.8863258  13.5803480  93.5170701  46.9928240   3.4091174
  93.2716743  46.0890570   3.6071384  93.6866615  46.9945390   2.4670652
 101.2067411  37.8651916  12.7915930 101.7249354  38.6012943  12.4662418
 100.8522543  38.1715909  13.6262689  92.7866348  42.7256597   0.9077336
  92.0935593  42.8000952   0.2517372  92.5418100  41.9616941   1.4298853
  99.2613473  53.4611192  -0.1258147  98.6887440  54.0801379  -0.5787675
  99.8346267  54.0110554   0.4081775 105.3288863  42.7069832  12.0588402
 106.2806286  42.8067930  12.0800626 105.1592314  41.9148101  12.5686486
 103.3503243  39.7925416  12.2447803 102.7553175  40.0730428  11.5494291
 103.0652939  40.2819317  13.0164544 102.4810733  53.7448342   1.0050435
 103.4141406  53.6793904   1.2083311 102.3933946  54.5804609   0.5464968
 107.8076941  45.9275952  11.1730701 107.7753261  44.9891953  11.3590385
 108.4177565  46.0059989  10.4396526  99.5298964  48.8489751  18.6758562
 100.4501974  49.0268350  18.8698609  99.4948547  47.9045797  18.5238262
  88.7481129  44.0428345   7.6011837  88.4283914  43.1893653   7.3086211
  88.2014558  44.2576923   8.3569804  92.5261037  46.7590786  11.3181343
  92.7447047  47.6907894  11.3369377  92.9386811  46.3998760  12.1036147
  97.3988902  42.3323992  20.7084092  97.2985629  43.2818349  20.6396183
  97.1810444  42.0042231  19.8360162  88.6169389  47.6631256   9.5704958
  87.9232861  47.2485209   9.0574913  89.3642380  47.7051793   8.9738377
  97.2620172  45.7621130  19.5249154  96.7787254  46.5621491  19.7313043
  97.3481111  45.7729075  18.5716598  90.5306132  47.5949510   7.4470973
  90.5076820  47.6937197   6.4952856  90.8406768  48.4414661   7.7688140
  93.1893510  49.6525665  11.5617588  94.1436763  49.6209608  11.4947519
  92.9906033  49.1916289  12.3767814  93.7792892  48.2226781  14.1288385
  94.5985781  48.7170860  14.1523223  94.0529700  47.3058749  14.1005953
  91.5443739  55.1945285   8.5787786  91.4098206  54.4345686   8.0125784
  91.1275801  55.9186185   8.1116575  94.7012864  56.0914602   8.7906228
  94.5845249  57.0360034   8.6884919  93.8805311  55.7888163   9.1792028
  89.0327806  42.5564915  14.8280583  89.6786670  42.0463869  15.3167808
  88.8244957  43.2933597  15.4024008 101.5581198  49.6245763  20.3272723
 102.4272358  49.7986415  19.9659358 101.0787950  50.4440179  20.2048452
  95.7267379  56.7442864  12.0062157  96.6294625  56.7766474  12.3228652
  95.5004749  55.8143315  12.0208493  97.4820981  55.4973850   8.6672235
  96.5316612  55.4975712   8.5536608  97.7853467  54.7506585   8.1508270
  93.3725297  39.7032532  18.9255597  94.2356759  39.3469337  19.1358921
  92.7990708  39.3646427  19.6131001 113.2173674  61.3334389   9.7317998
 113.8552084  61.2141136   9.0281338 113.0994517  62.2815232   9.7905950
 110.0263380  61.2861817   9.6679522 109.6881892  61.1702881   8.7800057
 110.8953148  60.8852982   9.6480529 110.5083163  62.4396668  15.6265728
 110.4971804  62.0449467  14.7546232 110.6703803  61.7062741  16.2199499
 103.4314628  64.6348485   8.4960634 104.2235920  64.2939309   8.0806933
 103.6711278  64.7443460   9.4162787 107.2290424  65.2233780  14.5744912
 106.9380290  66.1279411  14.4591578 107.8647409  65.2650308  15.2888982
 108.1546631  62.6010629  11.1646272 108.7510204  62.3766651  10.4503235
 108.2121603  61.8595374  11.7671719 112.7714943  59.0585842   6.8071206
 113.5578032  58.6405266   6.4561623 113.0353647  59.9631935   6.9752854
 115.6948790  52.7082650  12.1698793 115.3632115  53.5778061  11.9460008
 115.0994403  52.3918934  12.8492823 112.1880310  64.9095196  11.5694706
 111.8881033  65.8120234  11.4610513 111.8431369  64.6427379  12.4215859
 105.6392791  61.3608993   7.6031410 104.7143287  61.2285207   7.8109102
 105.8877204  62.1403212   8.1001352 115.5877453  57.4277736   9.2492143
 114.6794331  57.3593144   8.9550904 115.5365049  57.9049681  10.0773968
 103.0001602  61.0042266   8.4375199 103.1293983  61.2576745   9.3514611
 102.3199053  61.5969974   8.1179854 109.6618319  58.8467381  17.1927040
 108.8851653  59.4061302  17.1829905 110.3008882  59.3324164  17.7141910
 117.4539100  55.6294174  11.0270017 116.8113480  55.9226707  10.3809811
 116.9494028  55.5147095  11.8323214 107.9164691  61.6552835  16.7545007
 108.6579376  62.1937879  16.4779831 107.2101677  62.2819124  16.9116559
 113.3920031  63.7981975  15.3517169 113.8003387  63.3564386  14.6071801
 112.6697293  63.2234603  15.6051362 109.7451101  58.7354582  12.7250726
 110.5912296  59.1593996  12.8685375 109.6849739  58.0788206  13.4189289
 112.8950546  56.3958950  14.3831899 112.6511478  57.1501011  13.8466175
 113.1710477  56.7744298  15.2179146 114.8489009  62.9397563  13.0609165
 115.0605904  63.5829323  12.3843546 114.8018757  62.1059879  12.5931095
 112.4515238  55.5515383   9.9645737 111.5899717  55.8496637  10.2562475
 112.4777673  55.7685782   9.0326770 106.1600889  63.6429056   9.3099306
 106.7302246  64.0716324   8.6716790 106.7509000  63.3611640  10.0083492
 106.6526055  58.8092483  17.5560317 106.0224716  59.4908764  17.7895714
 106.5462143  58.6975565  16.6113455 101.9471028  58.4764279   8.4826241
 101.1570082  58.7321808   8.0066352 102.4382275  59.2912617   8.5878282
 103.8985773  58.8408858   5.4409718 103.1016936  58.9527553   5.9593214
 103.6711365  59.1795510   4.5750609 109.7291441  65.3653562  13.3892233
 109.7935873  65.8273969  14.2250405 109.0202364  64.7350926  13.5174543
 100.2308731  58.7294769  10.9141232 100.4816769  59.6141779  11.1798808
 100.7668279  58.5499371  10.1416324 105.9306798  53.1113249  19.9185568
 105.5373743  52.5579447  20.5933213 106.7472938  53.4223827  20.3092086
 108.8474759  54.5271128  17.5105825 109.5884472  55.1278281  17.4310287
 109.0792682  53.7848766  16.9523867 103.9916097  59.7127495  15.7884055
 103.8769612  58.8112752  16.0891153 103.1360615  59.9591192  15.4368871
 111.0707935  67.6545236  17.3871555 110.6271789  66.8681614  17.0692460
 111.7325148  67.8424386  16.7215446 105.8295056  69.1841037  11.9132234
 106.3802481  69.0558100  11.1409228 104.9906532  69.4835926  11.5627126
 113.1689173  67.9348035  15.4152956 113.1507648  68.7556916  14.9233226
 114.0909093  67.8102111  15.6403098 109.6262227  65.4492165  16.2576465
 110.1590564  64.6880453  16.0275773 109.0976308  65.1565817  17.0000619
 112.7931922  50.5552231  11.7870107 112.4496191  51.4453873  11.7109217
 113.1610884  50.3653889  10.9239692 100.8617772  62.8785761   4.6058709
 101.6992994  63.2882770   4.3892416 101.0396040  61.9385203   4.5758903
 111.8728462  52.9256886   9.7519340 111.3693258  52.8887021   8.9387145
 112.1659069  53.8349629   9.8115996 108.1171348  53.0095616   8.7585522
 108.9824345  52.8138424   8.3991411 108.1848857  52.7805968   9.6854878
 105.7233667  55.2397824   6.1301888 106.2977419  55.0173005   5.3975081
 106.3104650  55.3086518   6.8830490 111.2594075  58.6021006   9.1824605
 110.3416637  58.8235953   9.0246293 111.6754219  58.6767317   8.3236313
 100.8843944  60.2176477   5.2769442 100.6868343  59.6245837   4.5520509
 100.3290608  59.9128687   5.9945381 108.8640667  60.1099583   7.3964035
 108.9189277  59.1573420   7.3206512 108.0531869  60.2659022   7.8805334
 106.8033027  58.7276643   5.1554414 105.9900893  59.0270813   5.5619606
 107.2992021  58.3332332   5.8728896 112.4007239  59.1918467  13.9869308
 112.7556627  59.4189940  14.8463774 113.0479370  59.5236844  13.3646563
 106.2947102  56.2994998  10.7715649 106.9346481  56.1583757  10.0738612
 105.4624632  56.0129512  10.3954251 111.8902250  67.9815524  11.2363009
 111.9439273  68.5506461  12.0040725 111.0217032  68.1517409  10.8717046
 103.2975718  56.2695323   5.5488636 103.5582536  57.1840657   5.4397796
 104.1192891  55.8019766   5.6985249 104.7700644  57.6833081  12.7187460
 105.4423697  57.4750443  12.0700109 103.9430430  57.4855167  12.2792693
 110.6726216  54.3095021  14.7353121 110.0254131  55.0084971  14.6417598
 111.4427231  54.7431165  15.1029370 114.0805014  64.5743874  17.8103675
 113.9290520  64.3454425  16.8933758 114.0709693  65.5314475  17.8235020
 110.8490350  62.1475786  12.7949941 111.7782410  62.2986946  12.6218908
 110.4281380  62.2359807  11.9398588 109.6478682  66.1726451  10.5648479
 109.5089767  65.8045235  11.4374417 108.8593278  66.6874090  10.3932436
 105.1728141  60.9575684  13.4789898 105.0347939  60.2255922  14.0801437
 106.0833064  60.8684584  13.1974085 107.8010442  60.6695643  12.9673577
 108.5110060  60.0288835  12.9260196 107.7579750  60.9208538  13.8899758
 115.7897220  67.6062996  15.8880156 115.7309766  66.9222216  15.2210739
 116.1916739  68.3481986  15.4360782 106.5139376  57.6560861  14.7869217
 105.9776733  57.2051599  15.4390813 105.9256084  57.7906770  14.0439681
 115.7914628  65.5702580  14.1194136 114.9041406  65.2328502  14.2420535
 116.3613179  64.8385611  14.3562902  97.4443775  61.9026672   7.4437188
  98.1314814  61.5888402   6.8558203  97.2891903  62.8068037   7.1704439
 102.2478497  56.7916868  11.8722211 102.1636686  56.1842538  11.1372621
 101.4261203  57.2825887  11.8731708 111.7814464  70.1290867  13.2413538
 112.4942437  70.7638331  13.1689439 111.2904493  70.2254732  12.4253540
 109.0037179  57.4187815   6.9664091 108.6334967  56.8658855   7.6544996
 109.4996272  56.8145948   6.4139091 106.8326378  67.8785310  14.0619109
 107.5335837  68.5121793  14.2148503 106.3621493  68.2200042  13.3014748
 114.6327664  60.4329917  11.8871659 113.9799114  60.6805825  11.2324112
 115.0108044  59.6194056  11.5534136 110.6815237  61.1749728  18.3737696
 110.0055874  61.0743858  19.0440071 111.5042871  61.0188942  18.8373693
 102.4294096  67.4121665  10.9950211 103.0147533  66.6665353  11.1278116
 102.2318934  67.7225622  11.8786875  97.0211751  59.9827265   9.7154655
  97.0595850  59.4490856  10.5091773  96.5152044  59.4562471   9.0965632
 104.4002513  54.8291806  13.2117197 104.4643840  55.6906637  12.7994595
 104.3369633  54.2165807  12.4789555 103.8754786  56.9014938  16.8590231
 104.5026824  56.5192016  17.4727756 103.0182704  56.6829140  17.2245924
 114.2748894  67.3077913  18.4643967 114.8188798  67.9207872  17.9698921
 113.6935739  67.8657492  18.9810980 100.6520328  58.7091367   2.7908586
 100.9473769  57.8002046   2.7375640  99.7508364  58.6879107   2.4689588
 104.1814575  56.7847364   8.7736135 103.4601161  57.3983332   8.6343608
 104.9707831  57.3205129   8.6952781 106.9840889  54.1201790  15.0476786
 107.5075291  54.3664087  15.8103096 106.7653222  54.9521825  14.6279924
 102.3808170  56.3905465   2.9147911 102.0520876  55.5102844   2.7323017
 102.7347541  56.3353134   3.8024300 105.4949993  56.6778435   3.2823389
 105.8346066  57.2064356   2.5601997 105.9422114  57.0158841   4.0581955
 108.1893434  55.0615486  12.7326457 107.8490254  54.2623299  13.1347137
 107.4832440  55.3617196  12.1603290 108.8409906  52.1464798  11.1853780
 109.6635975  51.6725276  11.0632670 109.0847969  52.9255282  11.6852466
 106.3648484  58.8383919   8.9945759 106.2193065  59.1524222   9.8870040
 105.8873688  59.4568819   8.4416657 108.2244867  55.8286467   9.0426648
 108.2106436  54.9327560   8.7058946 108.9417295  55.8357130   9.6764934
 110.0770998  56.2623807  11.0879776 109.8188776  57.1840877  11.0864106
 109.5456038  55.8654241  11.7780240 100.8394147  61.3789263  11.9333420
 100.2947615  62.1549071  12.0653694 101.7173497  61.7260067  11.7752541
 107.6281763  54.7100847   4.3114218 107.7497674  53.7817493   4.5105106
 107.3383806  54.7239533   3.3992534 101.6260169  60.5059159  14.8263577
 100.8841905  60.6541795  15.4128207 101.3052913  60.7667425  13.9630326
 109.5703831  70.0475138  14.6243967 109.8790958  69.8024284  15.4966666
 110.3679313  70.2521776  14.1362837 100.2725387  66.3110914   7.8162905
  99.4357296  65.8833089   7.6346906 100.2449033  66.5043358   8.7533696
 107.1122843  56.2232844  18.5204151 107.1610998  57.0994967  18.1381920
 107.6545357  55.6810237  17.9475794 117.5977689  66.7673968  17.8005288
 116.8073232  66.7498106  17.2609787 117.3611043  67.3062261  18.5554325
 117.7175564  63.6166434  15.1138016 117.7673568  63.4516441  16.0553539
 117.6089487  62.7493693  14.7235897 115.0079326  59.5997362  16.4297323
 115.9089189  59.4603827  16.1381321 115.0827300  59.7651817  17.3695501
 109.3422131  56.9764217  15.2750509 108.4725441  57.2697783  15.0033098
 109.5781612  57.5604662  15.9957773 119.2193760  66.0363375  15.3580038
 118.9278569  66.3993356  16.1943499 118.6065892  65.3230384  15.1793370
 117.4680949  61.1595990  13.8260096 117.9435070  61.3523636  13.0178947
 116.5446514  61.2155176  13.5803480 112.0461165  53.1943834  12.7915930
 112.5643109  53.9304861  12.4662418 111.6916298  53.5007827  13.6262689
 116.1682618  58.0361750  12.0588402 117.1200041  58.1359848  12.0800626
 115.9986068  57.2440019  12.5686486 114.1896997  55.1217333  12.2447803
 113.5946929  55.4022346  11.5494291 113.9046694  55.6111234  13.0164544
 118.6470695  61.2567870  11.1730701 118.6147016  60.3183871  11.3590385
 119.2571319  61.3351907  10.4396526 110.3692719  64.1781669  18.6758562
 111.2895728  64.3560268  18.8698609 110.3342302  63.2337714  18.5238262
  99.5874884  59.3720263   7.6011837  99.2677668  58.5185571   7.3086211
  99.0408312  59.5868841   8.3569804 103.3654791  62.0882704  11.3181343
 103.5840801  63.0199811  11.3369377 103.7780565  61.7290678  12.1036147
 108.2382657  57.6615909  20.7084092 108.1379384  58.6110266  20.6396183
 108.0204199  57.3334148  19.8360162  99.4563144  62.9923174   9.5704958
  98.7626615  62.5777127   9.0574913 100.2036135  63.0343711   8.9738377
 108.1013927  61.0913048  19.5249154 107.6181008  61.8913408  19.7313043
 108.1874866  61.1020993  18.5716598 101.3699886  62.9241428   7.4470973
 101.3470574  63.0229115   6.4952856 101.6800523  63.7706579   7.7688140
 104.0287264  64.9817583  11.5617588 104.9830518  64.9501525  11.4947519
 103.8299788  64.5208207  12.3767814 104.6186646  63.5518699  14.1288385
 105.4379535  64.0462778  14.1523223 104.8923454  62.6350667  14.1005953
  99.8721561  57.8856833  14.8280583 100.5180424  57.3755787  15.3167808
  99.6638712  58.6225514  15.4024008 112.3974953  64.9537680  20.3272723
 113.2666112  65.1278333  19.9659358 111.9181704  65.7732097  20.2048452
 106.5661133  72.0734781  12.0062157 107.4688380  72.1058392  12.3228652
 106.3398503  71.1435232  12.0208493 104.2119052  55.0324450  18.9255597
 105.0750513  54.6761255  19.1358921 103.6384462  54.6938345  19.6131001
 116.7700552  68.4405167  19.9185568 116.3767498  67.8871365  20.5933213
 117.5866693  68.7515745  20.3092086 119.6868513  69.8563046  17.5105825
 120.4278227  70.4570199  17.4310287 119.9186436  69.1140683  16.9523867
 114.7148540  72.2306856  16.8590231 115.3420579  71.8483933  17.4727756
 113.8576459  72.0121058  17.2245924 117.9516597  71.5524762  18.5204151
 118.0004753  72.4286885  18.1381920 118.4939112  71.0102155  17.9475794
 119.0776411  72.9907827  20.7084092 118.9773138  73.9402184  20.6396183
 118.8597953  72.6626066  19.8360162 110.7115315  73.2148750  14.8280583
 111.3574179  72.7047704  15.3167808 110.5032466  73.9517432  15.4024008
 115.0512806  70.3616368  18.9255597 115.9144268  70.0053172  19.1358921
 114.4778217  70.0230262  19.6131001   4.8209523  77.4900190  87.2344651
   4.0673232  76.9207588  87.0788655   4.9557064  77.4562854  88.1815285
   1.6425271  77.4602940  85.1388318   2.0856417  76.7110265  84.7407441
   0.7651781  77.4513076  84.7562050   1.1858136  78.9308178  87.5310765
   2.0205027  79.3697982  87.6948326   1.3217265  78.4546831  86.7119011
   5.2315938  77.6475800  89.9664895   5.9619327  77.3861088  90.5272598
   4.6222884  76.9104522  90.0066963   3.3131235  75.7883662  90.5639346
   2.5864399  75.6539627  89.9555838   2.8978522  76.0960491  91.3696064
   0.9309030  72.0095514  87.9172778   1.5253521  71.7691250  87.2066086
   1.0035614  71.2902645  88.5446314   3.2380103  75.3161715  86.6916199
   2.6779661  75.3854905  87.4647761   2.6323606  75.1402700  85.9715695
   4.8236122  91.9918229  89.3846155   5.4614532  91.8724977  88.6809495
   4.7056964  92.9399073  89.4434107   1.6325828  91.9445657  89.3207680
   1.2944339  91.8286722  88.4328214   2.5015596  91.5436822  89.3008686
   3.0712202  97.4652101  80.6219035   2.4200182  98.0506182  80.2353049
   3.8656565  97.9958296  80.6814073   4.3777390  89.7169683  86.4599363
   5.1640479  89.2989106  86.1089780   4.6416094  90.6215775  86.6281011
   4.5487467  95.1542533  81.1588020   3.9133300  95.2277160  81.8708924
   4.2184874  95.7436132  80.4807099   9.7785817  89.6544916  87.3632341
  10.5110989  89.0844133  87.5970171   9.0225173  89.2666517  87.8038847
   1.3961937  92.0772158  84.5595684   1.0320144  91.5502779  85.2708605
   2.2529053  91.6870627  84.3862169   7.3011238  83.3666490  91.8226950
   6.9694562  84.2361901  91.5988165   6.7056851  83.0502774  92.5020980
   1.0367424  87.1062057  79.5557032   1.2041826  87.9742294  79.9227503
   0.8464593  87.2689339  78.6318322   3.7942757  95.5679036  91.2222863
   3.4943480  96.4704075  91.1138670   3.4493817  95.3011220  92.0744016
   7.1939901  88.0861577  88.9020300   6.2856778  88.0176985  88.6079061
   7.1427497  88.5633521  89.7302126   9.0601547  86.2878015  90.6798174
   8.4175928  86.5810548  90.0337969   8.5556476  86.1730935  91.4851371
   6.7141711  90.0341188  81.3684033   7.6259567  90.2668575  81.1931731
   6.2051358  90.6178232  80.8059112   4.9982479  94.4565816  95.0045326
   5.4065835  94.0148226  94.2599958   4.2759740  93.8818443  95.2579519
   1.3513549  89.3938423  92.3778883   2.1974744  89.8177836  92.5213532
   1.2912186  88.7372047  93.0717446   5.3211293  95.0167007  88.7597615
   4.6920156  95.1812721  88.0573683   4.9336955  95.4308616  89.5308579
   9.2000525  95.9521444  86.1141978   8.5151563  96.3320346  85.5639012
   9.2844374  96.5616771  86.8473926   4.5012994  87.0542791  94.0360056
   4.2573926  87.8084852  93.4994332   4.7772924  87.4328139  94.8707303
   6.4551457  93.5981403  92.7137322   6.6668352  94.2413163  92.0371703
   6.4081205  92.7643720  92.2459252   4.0577686  86.2099224  89.6173894
   3.1962165  86.5080478  89.9090632   4.0840120  86.4269623  88.6854927
   0.8739255  94.7541415  86.0247700   1.3377601  95.0329118  85.2352322
   0.6096053  93.8524859  85.8420790   7.5697285  96.4753359  90.8859679
   8.3914728  96.0733546  90.6042361   7.5659688  96.3721593  91.8375795
  15.6603278  92.8192107  87.2344651  14.9066986  92.2499505  87.0788655
  15.7950819  92.7854772  88.1815285   1.0501906  97.6905510  82.9099370
   0.9147581  98.5357045  83.3384218   1.5911718  97.8924787  82.1465304
   4.3994369  81.2136072  91.4398264   4.0558639  82.1037713  91.3637374
   4.7673332  81.0237729  90.5767849   4.3644652  91.2044683  79.9470699
   3.8491276  91.9749287  80.1859086   4.0921961  90.5309819  80.5703760
   1.9491763  86.0494383  85.0055937   1.0933359  85.6601234  84.8261576
   2.3618715  86.1286344  84.1455723   3.4790910  83.5840727  89.4047497
   2.9755705  83.5470862  88.5915302   3.7721517  84.4933469  89.4644154
   9.3378926  93.9577037  81.8823872   8.5608369  93.6188197  81.4379034
  10.0170407  93.9629660  81.2078837   4.1530955  89.0771775  81.7730480
   3.8481091  89.3917924  82.6240623   5.1061397  89.1553195  81.8157813
   2.5977387  95.2361998  83.4223434   2.0698749  94.5014758  83.1096671
   2.0964890  96.0136674  83.1763402   7.5770233  93.4311019  88.5390480
   6.9193908  94.1210280  88.6270609   8.3810632  93.8207451  88.8824467
   6.3875692  91.7855391  86.5894422   6.9007574  92.4185383  87.0916132
   7.0376916  91.1856587  86.2237782   3.6498066 101.7639716  79.3455093
   2.9759765 102.0671412  79.9540051   4.0363888 102.5668796  78.9960550
   2.8656523  89.2604847  88.8352762   1.9479084  89.4819794  88.6774451
   3.2816666  89.3351157  87.9764470   3.6491571  90.6596262  83.9655443
   4.3963389  91.1717660  83.6562565   3.9183160  90.3380315  84.8259836
   1.9218221  93.1554803  80.9482397   1.0129440  92.8713836  81.0454867
   1.9513305  93.5753882  80.0885704   7.1537488  96.7661393  84.7173565
   6.6999815  95.9252303  84.7738755   6.5231455  97.4022791  85.0548345
   6.0970408  87.6953379  85.9474232   5.3593164  87.1830765  86.2784475
   6.3497181  87.2553760  85.1357509   5.5970427  98.6037889  85.6523383
   5.8893402  99.1642947  84.9335748   6.1069048  98.8966450  86.4076542
   6.1982035  80.4729631  86.5416001   6.5040912  79.6126994  86.2541916
   6.9234640  81.0647251  86.3414995   1.6194309  94.6963547  78.2870476
   1.1813738  93.9799406  77.8276113   2.3604749  94.9239662  77.7255567
   0.5604053  99.3818240  86.7416836   0.5180231  99.6079087  85.8125368
   1.4766751  99.1481615  86.8902637   4.0069686  89.8502308  93.6397465
   4.3619074  90.0773781  94.4991931   4.6541818  90.1820685  93.0174720
   9.7367423  92.9720744  84.3446794   9.5985322  93.1622340  83.4167983
   9.3803642  93.7340127  84.8014845   9.7636803  95.0397271  89.3558066
  10.1973310  94.9472560  90.2041120  10.4768384  95.0154771  88.7178082
   3.4964698  98.6399365  90.8891166   3.5501720  99.2090301  91.6568882
   2.6279479  98.8101250  90.5245203  10.6252352  95.0820972  91.8890951
  10.8188243  95.9866782  92.1350226  10.5252971  94.6228391  92.7229536
   2.2788663  84.9678862  94.3881278   1.6316578  85.6668812  94.2945755
   3.0489679  85.4015006  94.7557527   2.4552798  92.8059627  92.4478098
   3.3844858  92.9570787  92.2747065   2.0343828  92.8943648  91.5926745
   1.8489281 101.9319388  81.5602172   2.0241037 101.4607431  82.3747795
   1.1622069 102.5585154  81.7883433   2.8046344  96.2091894  87.6065474
   2.4696177  96.1692664  88.5023123   2.3050290  95.5436610  87.1335884
   5.7405536  93.5547929  77.8802533   5.1234707  92.8294757  77.7835586
   5.2722025  94.3157289  77.5369607   7.3959668  98.2646837  95.5408314
   7.3372214  97.5806057  94.8738897   7.7979186  99.0065827  95.0888940
   7.3977075  96.2286421  93.7722293   6.5103854  95.8912343  93.8948692
   7.9675626  95.4969452  94.0091059   4.0264658  85.9354273  86.8920563
   4.5233358  85.1824235  86.5721634   3.2551640  85.9718589  86.3263773
  11.8794416  91.6394638  88.5338855  11.8684292  92.5219354  88.1632788
  11.0111795  91.2866189  88.3393392   5.1094439  94.6925960  84.4658987
   4.1750718  94.8127422  84.2963691   5.2871107  93.7898427  84.2018997
   8.4966990  90.5343279  85.0009021   8.9627442  91.3671271  84.9269324
   8.9474491  90.0688261  85.7054279   6.5643221  96.8787100  81.9995173
   6.8403065  96.7643695  82.9089047   5.6947720  96.4804585  81.9607346
   6.4683653  82.9023866  89.0399922   5.5546733  83.1328093  89.2082129
   6.8976754  82.9862310  89.8913955   6.2390111  91.0913758  91.5399816
   5.5861562  91.3389666  90.8852269   6.6170491  90.2777896  91.2062294
   3.1997285 101.1273451  85.6427987   3.3819680 100.3095107  86.1055739
   4.0230271 101.3441144  85.2052877   3.5339451 100.0541636  82.9043035
   4.0627217  99.5434091  82.2913197   3.7967670  99.7384167  83.7688568
   4.1668855 101.0882472  89.2487152   4.0419994 100.2872212  88.7398097
   4.8247946 101.5828666  88.7601121   6.2303763  98.8891492  90.8766702
   5.2834099  98.7696843  90.8045028   6.5786536  98.0013990  90.9592963
   3.2350196  98.6844208  87.0771054   3.0875159  97.7560916  87.2578624
   4.0603690  98.7064299  86.5928129   6.8384318  99.5072767  88.1635927
   7.7630866  99.3015629  88.0260378   6.6699622  99.2589168  89.0725268
   3.2311711  86.5382046  82.0703171   3.4475325  87.4206684  81.7691999
   2.7505778  86.1468260  81.3408813   1.6833446  86.9207648  90.7407933
   1.4251223  87.8424718  90.7392263   1.1518486  86.5238082  91.4308397
   6.6279634 100.0258435  83.5198018   6.8016512  99.4604857  82.7671870
   7.1208526 100.8259330  83.3377508   2.1035401  83.0539598  87.1009095
   2.1257098  83.1178931  86.1461075   2.5203460  82.2144107  87.2949601
  12.4819026  92.7894858  85.1388318  12.9250172  92.0402183  84.7407441
  11.6045536  92.7804994  84.7562050   7.6154807  99.3425199  80.6194916
   8.3105712  99.9631892  80.8382231   7.9577957  98.4920550  80.8947294
   9.5146230  96.7924905  82.1482247  10.0397554  97.1312177  81.4231567
   9.4268583  95.8571920  81.9645382   1.1986891 102.8596888  86.5077500
   0.7591881 102.3673267  87.2010357   1.9495008 102.3169856  86.2669575
   9.3238011  94.2750275  94.7666174   9.3736016  94.1100282  95.7081696
   9.2151934  93.4077534  94.3764054   6.6141774  90.2581203  96.0825480
   7.5151636  90.1187667  95.7909478   6.6889748  90.4235657  97.0223658
  10.8256208  96.6947216  95.0108195  10.5341016  97.0577197  95.8471656
  10.2128339  95.9814224  94.8321527  12.0251890  94.2600096  87.5310765
  12.8598782  94.6989900  87.6948326  12.1611019  93.7838749  86.7119011
   9.0743396  91.8179831  93.4788253   9.5497518  92.0107477  92.6707104
   8.1508962  91.8739017  93.2331637   3.6523613  83.8527674  92.4444087
   4.1705557  84.5888701  92.1190576   3.2978745  84.1591668  93.2790846
   3.9036207  80.2727957  87.9644984   4.1837961  79.6051146  88.5905410
   4.6886814  80.4657052  87.4519647   1.7069675  99.4486951  79.5270010
   1.1343642 100.0677138  79.0740482   2.2802469  99.9986312  80.0609932
   7.7745065  88.6945591  91.7116559   8.7262488  88.7943688  91.7328783
   7.6048516  87.9023859  92.2214643   5.7959445  85.7801174  91.8975960
   5.2009377  86.0606187  91.2022448   5.5109141  86.2695075  92.6692701
   4.9266935  99.7324101  80.6578592   5.8597608  99.6669663  80.8611468
   4.8390148 100.5680368  80.1993125   7.5554952  99.0489971  77.6182540
   7.4768583  98.7149835  78.5118298   8.3764619  99.5411739  77.6174012
  10.2533143  91.9151711  90.8258858  10.2209463  90.9767711  91.0118542
  10.8633767  91.9935747  90.0924683   2.0916474  90.7847763  76.8686062
   3.0375579  90.6553972  76.9374480   1.7130719  90.0462425  77.3455491
  10.4027631  88.7062754  90.8717142   9.8866680  87.9221211  90.6847070
  11.2867580  88.3781471  91.0363661   8.0638358  82.4503770  86.8312954
   7.8663180  82.1418858  87.7156286   8.6738064  83.1765408  86.9610884
  16.0709693  92.9767717  89.9664895  16.8013081  92.7153005  90.5272598
  15.4616638  92.2396439  90.0066963  14.1524990  91.1175580  90.5639346
  13.4258154  90.9831545  89.9555838  13.7372277  91.4252409  91.3696064
   1.8921457  83.2534630  82.9585189   1.0822185  82.9081715  83.3340435
   2.5805874  82.9442173  83.5472800   3.8212005  82.3312676  84.5809486
   4.3743044  82.7508130  85.2399509   4.0582091  81.4048424  84.6232442
   7.1990812  84.4413202  84.0888150   6.6189481  85.0998006  83.7066202
   6.9326745  83.6190546  83.6775567   5.6494378  83.8418259  86.2909470
   6.1494157  83.9534794  85.4823789   6.2929986  83.5379312  86.9310279
   5.9815690  86.6013292  83.1444498   5.0941545  86.8862943  82.9264693
   6.3969679  86.4407055  82.2971775   9.3330226  86.6259813  86.8598837
  10.1090616  87.1156265  87.1323454   8.6078360  87.0517867  87.3170707
  11.7702785  87.3387432  87.9172778  12.3647276  87.0983168  87.2066086
  11.8429369  86.6194563  88.5446314   5.1258904  96.3657967  77.2392518
   5.8294754  96.5707969  77.8550174   4.4021552  96.9334728  77.5041602
   5.9556714  92.1167828  83.3594788   5.8991915  92.5736379  82.5202421
   6.5085056  91.3558512  83.1817631   9.7661520  87.9057560  84.1844908
   9.5098454  87.5054195  85.0153115   9.1414388  88.6201354  84.0595047
  14.0773858  90.6453633  86.6916199  13.5173416  90.7146822  87.4647761
  13.4717361  90.4694618  85.9715695   7.0345601  96.8040496  79.2890978
   7.8691205  96.3721694  79.1068453   6.8729944  96.6322509  80.2167873
   6.6891493  93.3072609  80.6547317   6.6340297  93.1416881  79.7135762
   6.0637548  94.0148642  80.8109507   3.8139738  79.4023495  84.4878573
   3.0472134  78.8481981  84.6335255   4.2250443  79.4745364  85.3492724
  15.6629876 107.3210147  89.3846155  16.3008286 107.2016894  88.6809495
  15.5450719 108.2690991  89.4434107  12.4719582 107.2737575  89.3207680
  12.1338094 107.1578640  88.4328214  13.3409351 106.8728740  89.3008686
  10.1727862 106.0425822  78.6524620  10.4253382 105.5207344  77.8908083
   9.2352421 105.8791968  78.7551303  15.2171145 105.0461601  86.4599363
  16.0034234 104.6281024  86.1089780  15.4809849 105.9507693  86.6281011
  20.6179572 104.9836834  87.3632341  21.3504744 104.4136051  87.5970171
  19.8618927 104.5958434  87.8038847  12.2355691 107.4064075  84.5595684
  11.8713899 106.8794696  85.2708605  13.0922807 107.0162545  84.3862169
  18.1404992  98.6958408  91.8226950  17.8088317  99.5653819  91.5988165
  17.5450605  98.3794692  92.5020980  11.8761178 102.4353975  79.5557032
  12.0435581 103.3034212  79.9227503  11.6858347 102.5981257  78.6318322
  18.0333655 103.4153494  88.9020300  17.1250533 103.3468903  88.6079061
  17.9821251 103.8925439  89.7302126  11.8550399 104.8911633  80.5403699
  11.7350024 105.3368683  81.3789179  11.1602988 105.2396950  79.9817237
  19.8995302 101.6169933  90.6798174  19.2569682 101.9102466  90.0337969
  19.3950230 101.5022853  91.4851371  17.5535465 105.3633106  81.3684033
  18.4653322 105.5960493  81.1931731  17.0445112 105.9470150  80.8059112
  15.8376233 109.7857734  95.0045326  16.2459589 109.3440144  94.2599958
  15.1153495 109.2110361  95.2579519  12.1907303 104.7230340  92.3778883
  13.0368498 105.1469754  92.5213532  12.1305941 104.0663965  93.0717446
  15.3406748 102.3834709  94.0360056  15.0967680 103.1376769  93.4994332
  15.6166679 102.7620056  94.8707303  17.2945211 108.9273321  92.7137322
  17.5062106 109.5705081  92.0371703  17.2474959 108.0935638  92.2459252
  14.8971440 101.5391142  89.6173894  14.0355919 101.8372395  89.9090632
  14.9233875 101.7561541  88.6854927  10.6501896 106.2056485  82.8337265
  11.3525939 106.6577528  83.3011191  10.3182524 105.5640304  83.4617158
   4.3927230 104.4640037  88.1354399   3.6026284 104.7197566  87.6594509
   4.8838477 105.2788375  88.2406439   6.3441975 104.8284617  85.0937875
   5.5473138 104.9403311  85.6121371   6.1167567 105.1671269  84.2278766
  26.4997032 108.1484025  87.2344651  25.7460741 107.5791423  87.0788655
  26.6344573 108.1146690  88.1815285  11.2930961 100.5146886  97.1633982
  12.0340674 101.1154039  97.0838444  11.5248884  99.7724524  96.6052025
  15.2388124  96.5427989  91.4398264  14.8952393  97.4329631  91.3637374
  15.6067086  96.3529647  90.5767849  15.2038407 106.5336600  79.9470699
  14.6885030 107.3041205  80.1859086  14.9315715 105.8601737  80.5703760
  12.7885518 101.3786301  85.0055937  11.9327114 100.9893152  84.8261576
  13.2012469 101.4578262  84.1455723  14.3184664  98.9132644  89.4047497
  13.8149460  98.8762780  88.5915302  14.6115271  99.8225387  89.4644154
  10.5627550  98.9971374  88.4113679  11.4280547  98.8014183  88.0519568
  10.6305059  98.7681726  89.3383035  20.1772681 109.2868955  81.8823872
  19.4002123 108.9480114  81.4379034  20.8564162 109.2921578  81.2078837
  14.9924710 104.4063692  81.7730480  14.6874845 104.7209842  82.6240623
  15.9455152 104.4845112  81.8157813  18.4163988 108.7602936  88.5390480
  17.7587662 109.4502198  88.6270609  19.2204387 109.1499368  88.8824467
   8.1689869 101.2273582  85.7830045   8.7433621 101.0048764  85.0503238
   8.7560852 101.2962277  86.5358647  17.2269446 107.1147309  86.5894422
  17.7401328 107.7477301  87.0916132  17.8770670 106.5148504  86.2237782
   8.4959456 103.2578043  79.8025931   7.6596769 103.5952730  80.1235205
   8.3564226 103.1227023  78.8653068  10.4712537  98.1014831  84.5105115
   9.8176949  97.7863848  83.8861730  10.4293011  97.4790571  85.2364938
  11.5823742 108.3834126  76.4258407  10.6750804 108.1523379  76.6249556
  12.0794774 107.5871745  76.6132388  13.7050277 104.5896764  88.8352762
  12.7872839 104.8111711  88.6774451  14.1210421 104.6643075  87.9764470
  14.4885325 105.9888180  83.9655443  15.2357144 106.5009577  83.6562565
  14.7576915 105.6672233  84.8259836  12.7611975 108.4846721  80.9482397
  11.8523194 108.2005754  81.0454867  12.7907059 108.9045799  80.0885704
  16.9364162 103.0245296  85.9474232  16.1986919 102.5122683  86.2784475
  17.1890936 102.5845678  85.1357509  17.0375790  95.8021548  86.5416001
  17.3434666  94.9418912  86.2541916  17.7628394  96.3939169  86.3414995
  11.3096869 106.0975341  87.0492192  11.3645479 105.1449178  86.9734669
  10.4988071 106.2534781  87.5333491   9.2489229 104.7152401  84.8082571
   8.4357095 105.0146572  85.2147763   9.7448223 104.3208090  85.5257053
  14.8463441 105.1794226  93.6397465  15.2012829 105.4065699  94.4991931
  15.4935572 105.5112602  93.0174720  20.5761178 108.3012662  84.3446794
  20.4379076 108.4914258  83.4167983  20.2197397 109.0632044  84.8014845
   8.7403304 102.2870757  90.4243806   9.3802683 102.1459516  89.7266770
   7.9080834 102.0005270  90.0482408  20.6030557 110.3689189  89.3558066
  21.0367064 110.2764478  90.2041120  21.3162138 110.3446689  88.7178082
   5.8246371 105.7316269  82.6138551   4.8943959 105.6700724  82.8308513
   5.9203843 105.2092222  81.8175193   5.7431920 102.2571082  85.2016793
   6.0038738 103.1716415  85.0925953   6.5649093 101.7895524  85.3513406
  21.4646107 110.4112889  91.8890951  21.6581997 111.3158700  92.1350226
  21.3646725 109.9520308  92.7229536  13.1182418 100.2970780  94.3881278
  12.4710333 100.9960729  94.2945755  13.8883433 100.7306924  94.7557527
  13.2946552 108.1351545  92.4478098  14.2238612 108.2862704  92.2747065
  12.8737582 108.2235566  91.5926745  16.5799291 108.8839846  77.8802533
  15.9628461 108.1586674  77.7835586  16.1115779 109.6449206  77.5369607
   8.3697837 103.1025271  77.0023837   7.4927303 102.9814071  76.6386084
   8.8455590 102.3111349  76.7502726  14.8658413 101.2646190  86.8920563
  15.3627112 100.5116153  86.5721634  14.0945394 101.3010507  86.3263773
  22.7188170 106.9686556  88.5338855  22.7078046 107.8511271  88.1632788
  21.8505550 106.6158107  88.3393392  11.4493381 103.4063573  86.6192248
  11.0791169 102.8534614  87.3073154  11.9452474 102.8021707  86.0667248
  19.3360745 105.8635197  85.0009021  19.8021197 106.6963188  84.9269324
  19.7868245 105.3980178  85.7054279  17.3077407  98.2315784  89.0399922
  16.3940487  98.4620011  89.2082129  17.7370509  98.3154228  89.8913955
  17.0783866 106.4205676  91.5399816  16.4255316 106.6681583  90.8852269
  17.4564246 105.6069814  91.2062294   6.8458715 100.8167564  92.8645354
   6.9100042 101.6782395  92.4522752   6.7825835 100.2041566  92.1317713
   3.0976530 104.6967126  82.4436743   3.3929971 103.7877804  82.3903797
   2.1964566 104.6754865  82.1217745   6.6270777 102.7723122  88.4264292
   5.9057363 103.3859090  88.2871765   7.4164033 103.3080887  88.3480938
   9.4297091 100.1077549  94.7004943   9.9531493 100.3539845  95.4631253
   9.2109424 100.9397584  94.2808081   4.8264372 102.3781223  82.5676068
   4.4977078 101.4978602  82.3851174   5.1803743 102.3228892  83.4552458
   7.9406195 102.6654193  82.9351546   8.2802268 103.1940114  82.2130154
   8.3878316 103.0034599  83.7110113  10.6349636 101.0491244  92.3854614
  10.2946456 100.2499057  92.7875294   9.9288642 101.3492955  91.8131447
  11.2866108  98.1340556  90.8381937  12.1092177  97.6601035  90.7160827
  11.5304171  98.9131040  91.3380623   9.9274342 101.1628815  81.1344839
  10.6482705 101.5410068  80.6308556   9.3039646 101.8817692  81.2379817
  14.0705465 101.8673964  82.0703171  14.2869080 102.7498602  81.7691999
  13.5899532 101.4760177  81.3408813   8.8104687 104.8259677  88.6473916
   8.6649267 105.1399980  89.5398197   8.3329890 105.4444577  88.0944814
  10.6701069 101.8162225  88.6954805  10.6562638 100.9203318  88.3587103
  11.3873498 101.8232889  89.3293091  12.5227200 102.2499565  90.7407933
  12.2644978 103.1716636  90.7392263  11.9912241 101.8530000  91.4308397
  10.0737965 100.6976605  83.9642375  10.1953877  99.7693251  84.1633263
   9.7840008 100.7115291  83.0520691  12.9429156  98.3831516  87.1009095
  12.9650853  98.4470849  86.1461075  13.3597215  97.5436024  87.2949601
  23.3212780 108.1186775  85.1388318  23.7643926 107.3694100  84.7407441
  22.4439290 108.1096912  84.7562050  20.1631766 109.6042192  94.7666174
  20.2129771 109.4392200  95.7081696  20.0545689 108.7369451  94.3764054
  17.4535528 105.5873120  96.0825480  18.3545391 105.4479585  95.7909478
  17.5283503 105.7527575  97.0223658  11.7878333 102.9639975  94.9278667
  10.9181643 103.2573541  94.6561255  12.0237814 103.5480420  95.6485930
  22.8645645 109.5892014  87.5310765  23.6992536 110.0281818  87.6948326
  23.0004774 109.1130667  86.7119011  19.9137151 107.1471748  93.4788253
  20.3891272 107.3399395  92.6707104  18.9902716 107.2030934  93.2331637
  14.4917367  99.1819592  92.4444087  15.0099311  99.9180619  92.1190576
  14.1372500  99.4883585  93.2790846   6.0716305 104.0424273  80.5605493
   5.3785550 104.1168628  79.9045529   5.8268057 103.2784617  81.0827010
  14.7429961  95.6019874  87.9644984  15.0231715  94.9343064  88.5905410
  15.5280568  95.7948970  87.4519647  18.6138820 104.0237508  91.7116559
  19.5656243 104.1235606  91.7328783  18.4442270 103.2315777  92.2214643
  16.6353199 101.1093092  91.8975960  16.0403131 101.3898104  91.2022448
  16.3502896 101.5986993  92.6692701  21.0926897 107.2443628  90.8258858
  21.0603218 106.3059629  91.0118542  21.7027521 107.3227665  90.0924683
  12.9310228 106.1139681  76.8686062  13.8769333 105.9845889  76.9374480
  12.5524473 105.3754343  77.3455491  21.2421386 104.0354672  90.8717142
  20.7260435 103.2513128  90.6847070  22.1261334 103.7073388  91.0363661
  18.9032113  97.7795687  86.8312954  18.7056934  97.4710775  87.7156286
  19.5131818  98.5057326  86.9610884  26.9103447 108.3059635  89.9664895
  27.6406836 108.0444923  90.5272598  26.3010393 107.5688357  90.0066963
  24.9918744 106.4467498  90.5639346  24.2651908 106.3123463  89.9555838
  24.5766031 106.7544326  91.3696064  11.1153145 104.0389658  76.8040948
  10.2084601 103.7422770  76.8803661  11.3929126 103.7419476  75.9375234
  12.7315211  98.5826547  82.9585189  11.9215940  98.2373632  83.3340435
  13.4199628  98.2734091  83.5472800  14.6605759  97.6604594  84.5809486
  15.2136798  98.0800047  85.2399509  14.8975846  96.7340342  84.6232442
   9.8851930 100.8976593  76.9452927  10.7471094 101.2231491  77.2048744
  10.0702274 100.1108089  76.4325993  18.0384567  99.7705119  84.0888150
  17.4583236 100.4289923  83.7066202  17.7720499  98.9482464  83.6775567
  16.4888133  99.1710177  86.2909470  16.9887911  99.2826711  85.4823789
  17.1323741  98.8671230  86.9310279  16.8209445 101.9305210  83.1444498
  15.9335300 102.2154860  82.9264693  17.2363434 101.7698973  82.2971775
  20.1723981 101.9551731  86.8598837  20.9484371 102.4448183  87.1323454
  19.4472115 102.3809785  87.3170707  22.6096539 102.6679350  87.9172778
  23.2041030 102.4275086  87.2066086  22.6823123 101.9486480  88.5446314
  16.7950468 107.4459746  83.3594788  16.7385670 107.9028297  82.5202421
  17.3478811 106.6850430  83.1817631  20.6055274 103.2349477  84.1844908
  20.3492208 102.8346113  85.0153115  19.9808142 103.9493271  84.0595047
  24.9167612 105.9745551  86.6916199  24.3567170 106.0438740  87.4647761
  24.3111115 105.7986535  85.9715695  17.5285248 108.6364527  80.6547317
  17.4734051 108.4708798  79.7135762  16.9031303 109.3440560  80.8109507
  10.8381373  98.1372636  80.2332636  10.8260043  99.0814476  80.3900907
  11.7304795  97.9542781  79.9392097  14.6533493  94.7315412  84.4878573
  13.8865888  94.1773899  84.6335255  15.0644198  94.8037281  85.3492724
  26.0781878 111.8719907  91.4398264  25.7346148 112.7621549  91.3637374
  26.4460841 111.6821565  90.5767849  27.8769544 111.1313466  86.5416001
  28.1828421 110.2710830  86.2541916  28.6022149 111.7231086  86.3414995
  28.1471162 113.5607701  89.0399922  27.2334242 113.7911928  89.2082129
  28.5764263 113.6446146  89.8913955  25.5823716 110.9311792  87.9644984
  25.8625470 110.2634981  88.5905410  26.3674323 111.1240888  87.4519647
  29.7425867 113.1087605  86.8312954  29.5450688 112.8002693  87.7156286
  30.3525573 113.8349244  86.9610884  25.4999514 112.9896512  84.5809486
  26.0530553 113.4091965  85.2399509  25.7369600 112.0632260  84.6232442
  25.4927247 110.0607330  84.4878573  24.7259643 109.5065817  84.6335255
  25.9037952 110.1329199  85.3492724   4.8209525  54.4962312  73.9589957
   4.0673233  53.9269710  73.8033962   4.9557066  54.4624977  74.9060592
   1.6425272  54.4665062  71.8633624   2.0856418  53.7172388  71.4652748
   0.7651783  54.4575199  71.4807356   1.1858137  55.9370301  74.2556072
   2.0205028  56.3760105  74.4193632   1.3217266  55.4608954  73.4364318
   5.2315940  54.6537922  76.6910202   5.9619328  54.3923210  77.2517905
   4.6222885  53.9166644  76.7312270   3.3131237  52.7945785  77.2884653
   2.5864400  52.6601750  76.6801145   2.8978524  53.1022613  78.0941371
   0.9309032  49.0157637  74.6418085   1.5253522  48.7753373  73.9311393
   1.0035615  48.2964768  75.2691621   3.2380104  52.3223838  73.4161506
   2.6779662  52.3917027  74.1893068   2.6323608  52.1464823  72.6961002
   4.8236123  68.9980352  76.1091461   5.4614533  68.8787099  75.4054802
   4.7056966  69.9461196  76.1679414   1.6325829  68.9507780  76.0452986
   1.2944341  68.8348845  75.1573521   2.5015597  68.5498945  76.0253992
   2.1145612  70.1042632  82.0039192   2.1034253  69.7095430  81.1319695
   2.2766252  69.3708704  82.5972963   3.0712204  74.4714224  67.3464342
   2.4200183  75.0568304  66.9598356   3.8656566  75.0020419  67.4059380
   4.3777391  66.7231806  73.1844670   5.1640481  66.3051229  72.8335087
   4.6416096  67.6277898  73.3526318   4.5487469  72.1604656  67.8833326
   3.9133302  72.2339282  68.5954231   4.2184875  72.7498255  67.2052406
   9.7785818  66.6607039  74.0877648  10.5110990  66.0906256  74.3215478
   9.0225174  66.2728639  74.5284154   1.3961938  69.0834280  71.2840990
   1.0320145  68.5564901  71.9953912   2.2529054  68.6932749  71.1107476
   7.3011239  60.3728613  78.5472257   6.9694564  61.2424024  78.3233472
   6.7056852  60.0564897  79.2266287   1.0367425  64.1124180  66.2802339
   1.2041828  64.9804416  66.6472810   0.8464594  64.2751462  65.3563628
   3.7942758  72.5741159  77.9468169   3.4943481  73.4766198  77.8383977
   3.4493818  72.3073342  78.7989322   7.1939902  65.0923699  75.6265607
   6.2856779  65.0239108  75.3324368   7.1427498  65.5695644  76.4547432
   1.2680768  66.5113345  83.5700504   0.4914102  67.0707265  83.5603369
   1.9071331  66.9970128  84.0915374   9.0601549  63.2940138  77.4043481
   8.4175929  63.5872671  76.7583275   8.5556477  63.1793058  78.2096677
   6.7141712  67.0403311  68.0929340   7.6259568  67.2730697  67.9177037
   6.2051359  67.6240355  67.5304418   4.9982480  71.4627939  81.7290632
   5.4065836  71.0210349  80.9845265   4.2759741  70.8880566  81.9824825
   1.3513550  66.4000545  79.1024189   2.1974745  66.8239959  79.2458838
   1.2912188  65.7434170  79.7962753   5.3211295  72.0229129  75.4842921
   4.6920157  72.1874843  74.7818989   4.9336957  72.4370739  76.2553885
   9.2000526  72.9583567  72.8387285   8.5151565  73.3382468  72.2884318
   9.2844376  73.5678894  73.5719233   4.5012995  64.0604914  80.7605363
   4.2573927  64.8146974  80.2239639   4.7772926  64.4390261  81.5952610
   6.4551458  70.6043526  79.4382629   6.6668353  71.2475286  78.7617010
   6.4081206  69.7705843  78.9704559   4.0577687  63.2161347  76.3419201
   3.1962166  63.5142600  76.6335938   4.0840122  63.4331746  75.4100233
   0.8739256  71.7603537  72.7493006   1.3377602  72.0391240  71.9597629
   0.6096054  70.8586982  72.5666097   7.5697286  73.4815481  77.6104986
   8.3914730  73.0795669  77.3287668   7.5659689  73.3783716  78.5621102
   1.3353889  73.0299525  79.7665696   1.3998322  73.4919932  80.6023868
   0.6264813  72.3996890  79.8948006  15.6603279  69.8254230  73.9589957
  14.9066987  69.2561628  73.8033962  15.7950820  69.7916894  74.9060592
   1.0501907  74.6967632  69.6344677   0.9147582  75.5419168  70.0629525
   1.5911720  74.8986910  68.8710611   2.6770383  75.3191199  83.7645019
   2.2334238  74.5327577  83.4465923   3.3387597  75.5070349  83.0988910
   4.7751621  75.5993999  81.7926420   4.7570097  76.4202880  81.3006689
   5.6971542  75.4748074  82.0176561   1.2324676  73.1138128  82.6349929
   1.7653012  72.3526416  82.4049236   0.7038757  72.8211780  83.3774083
   4.3994371  58.2198194  78.1643570   4.0558640  59.1099836  78.0882681
   4.7673333  58.0299852  77.3013155   4.3644653  68.2106805  66.6716005
   3.8491277  68.9811410  66.9104393   4.0921962  67.5371941  67.2949067
   1.9491764  63.0556506  71.7301244   1.0933361  62.6663356  71.5506882
   2.3618716  63.1348467  70.8701029   3.4790911  60.5902849  76.1292804
   2.9755707  60.5532984  75.3160609   3.7721518  61.4995592  76.1889460
   9.3378927  70.9639160  68.6069179   8.5608370  70.6250319  68.1624341
  10.0170408  70.9691783  67.9324144   4.1530957  66.0833897  68.4975787
   3.8481092  66.3980047  69.3485930   5.1061399  66.1615317  68.5403120
   2.5977388  72.2424121  70.1468741   2.0698750  71.5076880  69.8341978
   2.0964891  73.0198797  69.9008709   7.5770234  70.4373141  75.2635787
   6.9193909  71.1272403  75.3515915   8.3810634  70.8269573  75.6069773
   6.3875693  68.7917514  73.3139729   6.9007575  69.4247506  73.8161438
   7.0376917  68.1918709  72.9483089   3.6498067  78.7701838  66.0700400
   2.9759766  79.0733535  66.6785358   4.0363889  79.5730918  65.7205857
   2.8656524  66.2666969  75.5598069   1.9479085  66.4881916  75.4019757
   3.2816668  66.3413280  74.7009776   3.6491572  67.6658385  70.6900749
   4.3963391  68.1779782  70.3807871   3.9183161  67.3442438  71.5505143
   1.9218222  70.1616926  67.6727704   1.0129441  69.8775959  67.7700173
   1.9513306  70.5816004  66.8131011   7.1537489  73.7723515  71.4418871
   6.6999816  72.9314425  71.4984062   6.5231456  74.4084914  71.7793651
   6.0970409  64.7015501  72.6719539   5.3593166  64.1892888  73.0029781
   6.3497182  64.2615883  71.8602816   5.5970429  75.6100012  72.3768689
   5.8893403  76.1705069  71.6581055   6.1069049  75.9028573  73.1321848
   6.1982036  57.4791753  73.2661308   6.5040913  56.6189117  72.9787223
   6.9234641  58.0709374  73.0660302   1.6194310  71.7025669  65.0115782
   1.1813740  70.9861528  64.5521420   2.3604751  71.9301784  64.4500874
   0.5604054  76.3880363  73.4662143   0.5180233  76.6141209  72.5370675
   1.4766753  76.1543738  73.6147944   4.0069688  66.8564431  80.3642772
   4.3619075  67.0835904  81.2237238   4.6541819  67.1882807  79.7420027
   9.7367425  69.9782867  71.0692101   9.5985323  70.1684462  70.1413290
   9.3803643  70.7402249  71.5260152   9.7636804  72.0459394  76.0803372
  10.1973311  71.9534683  76.9286426  10.4768385  72.0216894  75.4423388
   3.4964699  75.6461488  77.6136473   3.5501721  76.2152424  78.3814189
   2.6279480  75.8163373  77.2490510  10.6252354  72.0883094  78.6136258
  10.8188244  72.9928905  78.8595533  10.5252972  71.6290513  79.4474843
   2.2788664  61.9740985  81.1126585   1.6316580  62.6730934  81.0191061
   3.0489680  62.4077129  81.4802833   5.6867462  72.2389837  84.1877138
   5.5352969  72.0100389  83.2707222   5.6772142  73.1960438  84.2008483
   2.4552799  69.8121750  79.1723405   3.3844859  69.9632909  78.9992372
   2.0343829  69.9005770  78.3172051   1.8489283  78.9381511  68.2847479
   2.0241038  78.4669554  69.0993102   1.1622071  79.5647277  68.5128740
   2.8046346  73.2154017  74.3310780   2.4696178  73.1754787  75.2268430
   2.3050291  72.5498733  73.8581190   5.7405537  70.5610051  64.6047840
   5.1234708  69.8356879  64.5080893   5.2722026  71.3219411  64.2614914
   7.3959669  75.2708959  82.2653620   7.3372215  74.5868180  81.5984203
   7.7979187  76.0127949  81.8134246   7.3977076  73.2348543  80.4967600
   6.5103855  72.8974465  80.6193999   7.9675627  72.5031575  80.7336365
   0.9278230  77.8949996  77.4628843   0.8548401  78.7004967  77.9748148
   0.4855623  78.0941962  76.6376864   4.0264659  62.9416395  73.6165870
   4.5233359  62.1886358  73.2966940   3.2551641  62.9780712  73.0509079
  11.8794417  68.6456761  75.2584162  11.8684293  69.5281476  74.8878095
  11.0111796  68.2928312  75.0638699   3.3876913  77.7936830  79.6187002
   4.1004885  78.4284295  79.5462903   2.8966942  77.8900696  78.8027004
   5.1094440  71.6988082  71.1904293   4.1750719  71.8189545  71.0208998
   5.2871109  70.7960549  70.9264303   8.4966991  67.5405402  71.7254328
   8.9627444  68.3733393  71.6514630   8.9474492  67.0750383  72.4299586
   6.5643223  73.8849223  68.7240480   6.8403067  73.7705818  69.6334354
   5.6947721  73.4866708  68.6852653   6.4683654  59.9085989  75.7645229
   5.5546734  60.1390216  75.9327436   6.8976756  59.9924433  76.6159261
   6.2390113  68.0975881  78.2645123   5.5861563  68.3451788  77.6097576
   6.6170493  67.2840019  77.9307600   3.1997287  78.1335574  72.3673293
   3.3819681  77.3157230  72.8301046   4.0230273  78.3503266  71.9298183
   3.5339452  77.0603759  69.6288342   4.0627219  76.5496214  69.0158504
   3.7967672  76.7446289  70.4933875   2.2877686  68.8395692  84.7511160
   1.6118323  68.7389821  85.4213535   3.1105320  68.6834906  85.2147157
   1.0300469  80.1462619  78.9868776   1.5818777  80.3094241  79.7517861
   1.3706662  80.7367057  78.3148801   5.8811343  74.9723877  84.8417430
   6.4251247  75.5853835  84.3472385   5.2998188  75.5303455  85.3584443
   4.1668856  78.0944595  75.9732458   4.0419995  77.2934335  75.4643404
   4.8247947  78.5890788  75.4846428   6.2303764  75.8953615  77.6012008
   5.2834100  75.7758966  77.5290335   6.5786537  75.0076113  77.6838270
   3.2350198  75.6906331  73.8016360   3.0875160  74.7623038  73.9823930
   4.0603691  75.7126422  73.3173436   6.8384319  76.5134890  74.8881233
   7.7630867  76.3077751  74.7505684   6.6699623  76.2651291  75.7970575
   3.2311712  63.5444169  68.7948478   3.4475326  64.4268807  68.4937306
   2.7505779  63.1530382  68.0654120   1.6833447  63.9269770  77.4653239
   1.4251225  64.8486841  77.4637570   1.1518487  63.5300205  78.1553703
   6.6279636  77.0320557  70.2443325   6.8016513  76.4666980  69.4917177
   7.1208527  77.8321452  70.0622815   2.1035402  60.0601721  73.8254402
   2.1257099  60.1241054  72.8706381   2.5203462  59.2206229  74.0194908
  12.4819027  69.7956980  71.8633624  12.9250173  69.0464305  71.4652748
  11.6045537  69.7867117  71.4807356   7.6154808  76.3487322  67.3440223
   8.3105713  76.9694014  67.5627538   7.9577958  75.4982673  67.6192601
   9.5146231  73.7987027  68.8727554  10.0397555  74.1374300  68.1476874
   9.4268584  72.8634042  68.6890688   1.1766280  77.7121101  81.0017430
   1.4853406  77.4670248  81.8740130   1.9741762  77.9167739  80.5136301
   1.1986892  79.8659010  73.2322807   0.7591882  79.3735389  73.9255664
   1.9495009  79.3231978  72.9914882   9.2040137  74.4319931  84.1778752
   8.4135681  74.4144070  83.6383251   8.9673492  74.9708224  84.9327788
   9.3238012  71.2812397  81.4911480   9.3736017  71.1162405  82.4327003
   9.2151936  70.4139656  81.1009361   6.6141775  67.2643325  82.8070787
   7.5151638  67.1249790  82.5154785   6.6889749  67.4297780  83.7468964
  10.8256209  73.7009339  81.7353502  10.5341018  74.0639319  82.5716963
  10.2128340  72.9876347  81.5566834  12.0251892  71.2662218  74.2556072
  12.8598783  71.7052023  74.4193632  12.1611020  70.7900872  73.4364318
   9.0743397  68.8241953  80.2033560   9.5497519  69.0169600  79.3952411
   8.1508963  68.8801139  79.9576943   3.6523614  60.8589797  79.1689394
   4.1705558  61.5950824  78.8435882   3.2978747  61.1653790  80.0036153
   3.9036208  57.2790079  74.6890290   4.1837962  56.6113268  75.3150717
   4.6886815  57.4719175  74.1764954   1.7069677  76.4549073  66.2515317
   1.1343644  77.0739260  65.7985788   2.2802470  77.0048435  66.7855238
   7.7745066  65.7007713  78.4361865   8.7262489  65.8005811  78.4574089
   7.6048517  64.9085982  78.9459950   5.7959446  62.7863297  78.6221266
   5.2009378  63.0668309  77.9267755   5.5109143  63.2757198  79.3938007
   4.9266936  76.7386223  67.3823899   5.8597610  76.6731785  67.5856774
   4.8390149  77.5742490  66.9238431   7.5554953  76.0552094  64.3427846
   7.4768585  75.7211957  65.2363604   8.3764620  76.5473862  64.3419319
  10.2533144  68.9213833  77.5504165  10.2209464  67.9829834  77.7363849
  10.8633768  68.9997870  76.8169990   2.0916475  67.7909886  63.5931369
   3.0375580  67.6616094  63.6619787   1.7130720  67.0524548  64.0700797
  10.4027633  65.7124877  77.5962448   9.8866681  64.9283333  77.4092377
  11.2867581  65.3843593  77.7608968   8.0638360  59.4565892  73.5558261
   7.8663181  59.1480980  74.4401593   8.6738065  60.1827531  73.6856191
  16.0709694  69.9829840  76.6910202  16.8013083  69.7215128  77.2517905
  15.4616640  69.2458562  76.7312270  14.1524991  68.1237703  77.2884653
  13.4258155  67.9893667  76.6801145  13.7372278  68.4314531  78.0941371
   1.9755168  71.8427632  85.0532026   2.8958177  72.0206231  85.2472073
   1.9404751  70.8983678  84.9011725   1.8921458  60.2596752  69.6830496
   1.0822186  59.9143837  70.0585742   2.5805875  59.9504296  70.2718107
   3.8212006  59.3374799  71.3054792   4.3743045  59.7570252  71.9644815
   4.0582093  58.4110547  71.3477748   7.1990813  61.4475324  70.8133456
   6.6189482  62.1060128  70.4311509   6.9326746  60.6252669  70.4020874
   5.6494380  60.8480382  73.0154777   6.1494158  60.9596916  72.2069096
   6.2929988  60.5441435  73.6555585   5.9815691  63.6075415  69.8689805
   5.0941546  63.8925065  69.6509999   6.3969680  63.4469178  69.0217082
   9.3330228  63.6321935  73.5844144  10.1090618  64.1218388  73.8568761
   8.6078362  64.0579990  74.0416013  11.7702786  64.3449555  74.6418085
  12.3647277  64.1045291  73.9311393  11.8429370  63.6256685  75.2691621
   5.1258905  73.3720089  63.9637825   5.8294755  73.5770092  64.5795480
   4.4021554  73.9396851  64.2286908   5.9556715  69.1229950  70.0840095
   5.8991917  69.5798502  69.2447727   6.5085058  68.3620635  69.9062938
   9.7661521  64.9119682  70.9090214   9.5098455  64.5116318  71.7398422
   9.1414389  65.6263476  70.7840354  14.0773859  67.6515756  73.4161506
  13.5173417  67.7208945  74.1893068  13.4717362  67.4756740  72.6961002
   7.0345602  73.8102618  66.0136285   7.8691206  73.3783817  65.8313760
   6.8729945  73.6384632  66.9413179   6.6891494  70.3134732  67.3792624
   6.6340298  70.1479003  66.4381068   6.0637550  71.0210765  67.5354814
   4.0037402  72.6183644  86.7046187   4.8728561  72.7924296  86.3432822
   3.5244153  73.4378060  86.5821916   3.8139739  56.4085617  71.2123879
   3.0472135  55.8544104  71.3580562   4.2250444  56.4807486  72.0738031
  15.6629877  84.3272270  76.1091461  16.3008287  84.2079017  75.4054802
  15.5450720  85.2753113  76.1679414  12.4719584  84.2799698  76.0452986
  12.1338095  84.1640762  75.1573521  13.3409352  83.8790863  76.0253992
   8.3306399  86.1335174  72.0349877   7.7671264  86.0425111  71.2666165
   8.2158794  85.3135078  72.5152370  12.9539367  85.4334549  82.0039192
  12.9428007  85.0387348  81.1319695  13.1160006  84.7000622  82.5972963
   5.8770831  87.6286366  74.8734098   6.6692123  87.2877190  74.4580397
   6.1167481  87.7381341  75.7936251  13.9105958  89.8006142  67.3464342
  13.2593938  90.3860222  66.9598356  14.7050321  90.3312337  67.4059380
   7.8361585  86.8895279  67.7451476   8.6092461  86.3424266  67.6064352
   8.1886984  87.7539528  67.9565938   9.6746628  88.2171661  80.9518376
   9.3836494  89.1217292  80.8365042  10.3103612  88.2588189  81.6662445
  10.6002835  85.5948510  77.5419735  11.1966407  85.3704532  76.8276698
  10.6577806  84.8533255  78.1445183  10.1727863  83.0487945  65.3769926
  10.4253384  82.5269466  64.6153389   9.2352422  82.8854090  65.4796610
  15.2171146  82.0523723  73.1844670  16.0034235  81.6343147  72.8335087
  15.4809850  82.9569816  73.3526318  15.3881223  87.4896574  67.8833326
  14.7527056  87.5631200  68.5954231  15.0578630  88.0790172  67.2052406
  20.6179573  81.9898957  74.0877648  21.3504745  81.4198173  74.3215478
  19.8618929  81.6020557  74.5284154   9.8924152  84.9516051  67.5794301
   9.7760410  84.2760954  68.2475386  10.0026412  84.4648425  66.7626454
  12.2355693  84.4126198  71.2840990  11.8713900  83.8856819  71.9953912
  13.0922809  84.0224667  71.1107476  18.1404993  75.7020531  78.5472257
  17.8088318  76.5715942  78.3233472  17.5450607  75.3856815  79.2266287
  11.8761180  79.4416098  66.2802339  12.0435582  80.3096334  66.6472810
  11.6858349  79.6043379  65.3563628  14.6336513  87.9033077  77.9468169
  14.3337236  88.8058115  77.8383977  14.2887572  87.6365260  78.7989322
   8.0848994  84.3546873  73.9804874   7.1599491  84.2223088  74.1882566
   8.3333408  85.1341093  74.4774816  18.0333657  80.4215617  75.6265607
  17.1250534  80.3531025  75.3324368  17.9821252  80.8987562  76.4547432
  11.8550401  81.8973755  67.2649006  11.7350026  82.3430806  68.1034486
  11.1602989  82.2459073  66.7062544   5.4457805  83.9980147  74.8148663
   5.5750187  84.2514626  75.7288075   4.7655257  84.5907855  74.4953318
   9.6157293  94.6677397  70.9139137   9.5381322  95.6185222  70.9927618
   9.0118936  94.3223269  71.5714063  12.1074522  81.8405262  83.5700504
  11.3307856  82.3999183  83.5603369  12.7465085  82.3262045  84.0915374
  19.8995303  78.6232055  77.4043481  19.2569683  78.9164588  76.7583275
  19.3950232  78.5084976  78.2096677  17.5535467  82.3695228  68.0929340
  18.4653323  82.6022615  67.9177037  17.0445114  82.9532273  67.5304418
  10.3620895  84.6490716  83.1318471  11.1035579  85.1875760  82.8553295
   9.6557880  85.2757005  83.2890023  15.8376234  86.7919856  81.7290632
  16.2459590  86.3502267  80.9845265  15.1153496  86.2172484  81.9824825
  12.1907304  81.7292463  79.1024189  13.0368500  82.1531877  79.2458838
  12.1305942  81.0726087  79.7962753  16.1605049  87.3521047  75.4842921
  15.5313911  87.5166761  74.7818989  15.7730711  87.7662656  76.2553885
  20.0394281  88.2875485  72.8387285  19.3545319  88.6674386  72.2884318
  20.1238130  88.8970811  73.5719233  15.3406750  79.3896831  80.7605363
  15.0967682  80.1438892  80.2239639  15.6166680  79.7682179  81.5952610
  17.2945212  85.9335444  79.4382629  17.5062108  86.5767204  78.7617010
  17.2474961  85.0997760  78.9704559  14.8971441  78.5453264  76.3419201
  14.0355920  78.8434518  76.6335938  14.9233876  78.7623663  75.4100233
  11.7133011  87.0895455  72.7493006  12.1771356  87.3683158  71.9597629
  11.4489809  86.1878900  72.5666097   8.6057092  86.6366937  75.6872770
   9.1758449  87.0654205  75.0490254   9.1965204  86.3549521  76.3856955
  10.6501897  83.2118607  69.5582572  11.3525940  83.6639651  70.0256498
  10.3182525  82.5702426  70.1862465   9.0982258  81.8030364  83.9333781
   8.4680919  82.4846645  84.1669178   8.9918346  81.6913446  82.9886919
   4.3927231  81.4702160  74.8599705   3.6026285  81.7259689  74.3839816
   4.8838478  82.2850498  74.9651746  18.4091040  88.8107399  77.6104986
  19.2308484  88.4087586  77.3287668  18.4053443  88.7075633  78.5621102
   6.3441976  81.8346739  71.8183182   5.5473140  81.9465433  72.3366678
   6.1167568  82.1733391  70.9524072  12.1747644  88.3591442  79.7665696
  12.2392076  88.8211850  80.6023868  11.4658568  87.7288807  79.8948006
   2.6764934  81.7232650  77.2914696   2.9272972  82.6079660  77.5572272
   3.2124482  81.5437252  76.5189788  26.4997033  85.1546148  73.9589957
  25.7460742  84.5853546  73.8033962  26.6344575  85.1208812  74.9060592
  11.8895662  90.0259550  69.6344677  11.7541336  90.8711086  70.0629525
  12.4305474  90.2278828  68.8710611   8.3763001  76.1051130  86.2959032
   7.9829947  75.5517328  86.9706676   9.1929141  76.4161708  86.6865550
   5.3425059  87.5434988  70.2072602   5.8549579  88.3378238  70.3578167
   5.9947772  86.8461278  70.1406203   7.1519944  90.6600744  72.2895355
   7.3286572  91.5818709  72.1016339   7.9476777  90.3459163  72.7189735
  11.2930962  77.5209009  83.8879289  12.0340676  78.1216162  83.8083751
  11.5248885  76.7786647  83.3297331   6.4372300  82.7065376  82.1657518
   6.3225815  81.8050633  82.4664617   5.5816818  82.9529073  81.8142335
  13.5164138  90.6483116  83.7645019  13.0727992  89.8619495  83.4465923
  14.1781351  90.8362267  83.0988910   8.2751259  92.1778918  78.2905697
   8.8258684  92.0495981  77.5182691   7.4362735  92.4773807  77.9400590
  15.6145376  90.9285916  81.7926420  15.5963851  91.7494797  81.3006689
  16.5365296  90.8039992  82.0176561  12.0718430  88.4430046  82.6349929
  12.6046767  87.6818334  82.4049236  11.5432511  88.1503698  83.3774083
  15.2388125  73.5490112  78.1643570  14.8952395  74.4391754  78.0882681
  15.6067088  73.3591769  77.3013155   3.3073976  85.8723642  70.9832172
   4.1449198  86.2820651  70.7665880   3.4852243  84.9323084  70.9532366
  15.2038408  83.5398723  66.6716005  14.6885031  84.3103328  66.9104393
  14.9315716  82.8663859  67.2949067  12.7885519  78.3848424  71.7301244
  11.9327115  77.9955274  71.5506882  13.2012471  78.4640385  70.8701029
  14.3184665  75.9194767  76.1292804  13.8149461  75.8824902  75.3160609
  14.6115272  76.8287510  76.1889460  10.5627551  76.0033497  75.1358985
  11.4280548  75.8076305  74.7764875  10.6305060  75.7743848  76.0628342
  20.1772682  86.2931078  68.6069179  19.4002125  85.9542237  68.1624341
  20.8564163  86.2983701  67.9324144  14.9924711  81.4125815  68.4975787
  14.6874847  81.7271964  69.3485930  15.9455153  81.4907235  68.5403120
  13.4371143  87.5716038  70.1468741  12.9092504  86.8368798  69.8341978
  12.9358646  88.3490715  69.9008709  18.4163989  85.7665059  75.2635787
  17.7587663  86.4564320  75.3515915  19.2204388  86.1561491  75.6069773
   8.1689870  78.2335705  72.5075352   8.7433622  78.0110886  71.7748545
   8.7560853  78.3024399  73.2603953  17.2269448  84.1209432  73.3139729
  17.7401329  84.7539423  73.8161438  17.8770672  83.5210627  72.9483089
   8.4959458  80.2640166  66.5271237   7.6596770  80.6014852  66.8480512
   8.3564227  80.1289145  65.5898374  10.4712538  75.1076954  71.2350421
   9.8176951  74.7925971  70.6107036  10.4293012  74.4852694  71.9610244
  11.5823743  85.3896249  63.1503714  10.6750805  85.1585502  63.3494863
  12.0794775  84.5933868  63.3377695  14.4891822  94.0993756  66.0700400
  13.8153521  94.4025453  66.6785358  14.8757644  94.9022836  65.7205857
  13.7050279  81.5958887  75.5598069  12.7872840  81.8173834  75.4019757
  14.1210422  81.6705198  74.7009776  14.4885326  82.9950303  70.6900749
  15.2357145  83.5071700  70.3807871  14.7576916  82.6734355  71.5505143
  12.7611976  85.4908843  67.6727704  11.8523196  85.2067876  67.7700173
  12.7907060  85.9107922  66.8131011  17.9931244  89.1015433  71.4418871
  17.5393571  88.2606343  71.4984062  17.3625211  89.7376831  71.7793651
  16.9364163  80.0307419  72.6719539  16.1986920  79.5184805  73.0029781
  17.1890937  79.5907801  71.8602816  16.4364183  90.9391930  72.3768689
  16.7287157  91.4996987  71.6581055  16.9462804  91.2320491  73.1321848
  17.0375791  72.8083671  73.2661308  17.3434668  71.9481034  72.9787223
  17.7628396  73.4001291  73.0660302   3.3300147  83.2114358  71.6542906
   3.1324547  82.6183718  70.9293972   2.7746811  82.9066568  72.3718845
  11.3096871  83.1037464  73.7737499  11.3645480  82.1511300  73.6979976
  10.4988073  83.2596903  74.2578797  12.4588064  87.0317587  65.0115782
  12.0207494  86.3153446  64.5521420  13.1998505  87.2593702  64.4500874
   9.2489230  81.7214524  71.5327878   8.4357096  82.0208694  71.9393070
   9.7448225  81.3270213  72.2502360  11.3997808  91.7172281  73.4662143
  11.3573987  91.9433127  72.5370675  12.3160507  91.4835655  73.6147944
  14.8463442  82.1856348  80.3642772  15.2012830  82.4127821  81.2237238
  15.4935573  82.5174725  79.7420027  20.5761179  85.3074784  71.0692101
  20.4379078  85.4976380  70.1413290  20.2197398  86.0694167  71.5260152
   8.7403305  79.2932879  77.1489113   9.3802685  79.1521638  76.4512076
   7.9080836  79.0067393  76.7727715  20.6030559  87.3751311  76.0803372
  21.0367065  87.2826600  76.9286426  21.3162139  87.3508812  75.4423388
   9.5163609  88.5935310  73.2624105  10.3104208  88.0985630  73.0606680
   8.8055301  88.0653173  72.8991811  14.3358454  90.9753405  77.6136473
  14.3895476  91.5444342  78.3814189  13.4673235  91.1455290  77.2490510
   5.8246373  82.7378392  69.3383858   4.8943961  82.6762847  69.5553820
   5.9203845  82.2154344  68.5420499   5.7431922  79.2633204  71.9262100
   6.0038739  80.1778538  71.8171260   6.5649094  78.7957647  72.0758712
   7.2156847  80.6770962  79.0960924   7.8879900  80.4688324  78.4473573
   6.3886633  80.4793048  78.6566156  21.4646108  87.4175012  78.6136258
  21.6581998  88.3220822  78.8595533  21.3646726  86.9582431  79.4474843
  13.1182419  77.3032902  81.1126585  12.4710334  78.0022852  81.0191061
  13.8883434  77.7369046  81.4802833  16.5261217  87.5681755  84.1877138
  16.3746723  87.3392306  83.2707222  16.5165896  88.5252356  84.2008483
  13.2946553  85.1413667  79.1723405  14.2238613  85.2924827  78.9992372
  12.8737583  85.2297688  78.3172051  12.0934885  89.1664332  76.9421942
  11.9545971  88.7983116  77.8147880  11.3049481  89.6811971  76.7705900
  12.6883037  94.2673428  68.2847479  12.8634793  93.7961471  69.0993102
  12.0015825  94.8939194  68.5128740  13.6440100  88.5445934  74.3310780
  13.3089933  88.5046704  75.2268430  13.1444046  87.8790650  73.8581190
   7.6184344  83.9513564  79.8563361   7.4804142  83.2193803  80.4574900
   8.5289268  83.8622465  79.5747549  16.5799292  85.8901969  64.6047840
  15.9628463  85.1648797  64.5080893  16.1115780  86.6511329  64.2614914
  10.2466645  83.6633524  79.3447041  10.9566263  83.0226716  79.3033659
  10.2035953  83.9146419  80.2673222  18.2353424  90.6000877  82.2653620
  18.1765970  89.9160097  81.5984203  18.6372942  91.3419867  81.8134246
   8.9595579  80.6498742  81.1642680   8.4232936  80.1989480  81.8164277
   8.3712287  80.7844651  80.4213145   7.2544122  97.4162791  75.0587339
   7.4940721  98.0481315  75.7366358   6.4113319  97.0650831  75.3452698
   8.3697838  80.1087393  63.7269144   7.4927304  79.9876194  63.3631391
   8.8455591  79.3173471  63.4748033  18.2370831  88.5640461  80.4967600
  17.3497610  88.2266383  80.6193999  18.8069382  87.8323492  80.7336365
   4.6934700  79.7854749  78.2495675   4.6092889  79.1780419  77.5146085
   3.8717406  80.2763768  78.2505171  11.7671984  93.2241913  77.4628843
  11.6942156  94.0296885  77.9748148  11.3249377  93.4233879  76.6376864
  11.5561764  92.4613683  70.9731665  10.7729286  93.0035364  71.0669889
  12.2554509  92.9787663  71.3725906  14.8658414  78.2708313  73.6165870
  15.3627113  77.5178275  73.2966940  14.0945395  78.3072630  73.0509079
  22.7188171  83.9748678  75.2584162  22.7078048  84.8573394  74.8878095
  21.8505551  83.6220229  75.0638699  14.2270668  93.1228747  79.6187002
  14.9398640  93.7576212  79.5462903  13.7360696  93.2192613  78.8027004
  15.9488195  87.0280000  71.1904293  15.0144473  87.1481463  71.0208998
  16.1264863  86.1252467  70.9264303  11.4493383  80.4125696  73.3437555
  11.0791170  79.8596736  74.0318460  11.9452475  79.8083829  72.7912555
  19.3360746  82.8697319  71.7254328  19.8021198  83.7025311  71.6514630
  19.7868246  82.4042301  72.4299586   9.2782581  90.8723191  80.4392573
   9.9792041  91.5059674  80.5921967   8.8077696  91.2137922  79.6788212
  17.4036977  89.2141141  68.7240480  17.6796821  89.0997735  69.6334354
  16.5341476  88.8158626  68.6852653  17.3077409  75.2377906  75.7645229
  16.3940489  75.4682133  75.9327436  17.7370510  75.3216350  76.6159261
  17.0783867  83.4267798  78.2645123  16.4255317  83.6743706  77.6097576
  17.4564247  82.6131937  77.9307600  14.0391041  93.4627492  72.3673293
  14.2213436  92.6449147  72.8301046  14.8624027  93.6795184  71.9298183
  14.3733207  92.3895677  69.6288342  14.9020973  91.8788131  69.0158504
  14.6361426  92.0738207  70.4933875  13.1271440  84.1687609  84.7511160
  12.4512077  84.0681739  85.4213535  13.9499074  84.0126823  85.2147157
   4.8750299  90.4059546  77.3723675   5.4603736  89.6603234  77.5051579
   4.6775138  90.7163503  78.2560339   7.7288955  93.4410793  72.3886118
   7.0599330  93.9256921  71.9050158   7.5901824  93.6880014  73.3029496
  11.8694223  95.4754537  78.9868776  12.4212531  95.6386158  79.7517861
  12.2100417  96.0658975  78.3148801   6.8458716  77.8229687  79.5890661
   6.9100043  78.6844518  79.1768058   6.7825837  77.2103688  78.8563019
   6.3210989  79.8952819  83.2363695   6.9483028  79.5129897  83.8501219
   5.4638908  79.6767021  83.6019387  16.7205097  90.3015794  84.8417430
  17.2645001  90.9145753  84.3472385  16.1391942  90.8595373  85.3584443
   3.0976532  81.7029248  69.1682050   3.3929973  80.7939927  69.1149103
   2.1964567  81.6816988  68.8463052  15.0062610  93.4236512  75.9732458
  14.8813750  92.6226252  75.4643404  15.6641702  93.9182706  75.4846428
   6.6270779  79.7785245  75.1509598   5.9057364  80.3921213  75.0117072
   7.4164034  80.3143010  75.0726244  17.0697519  91.2245533  77.6012008
  16.1227854  91.1050884  77.5290335  17.4180292  90.3368031  77.6838270
   9.4297092  77.1139671  81.4250250   9.9531494  77.3601968  82.1876559
   9.2109425  77.9459706  81.0053387   4.8264373  79.3843346  69.2921375
   4.4977079  78.5040725  69.1096481   5.1803744  79.3291015  70.1797764
  14.0743952  91.0198249  73.8016360  13.9268915  90.0914956  73.9823930
  14.8997446  91.0418339  73.3173436   7.9406196  79.6716316  69.6596853
   8.2802269  80.2002237  68.9375461   8.3878317  80.0096722  70.4355419
  17.6778074  91.8426807  74.8881233  18.6024621  91.6369669  74.7505684
  17.5093377  91.5943209  75.7970575  10.6349637  78.0553367  79.1099921
  10.2946458  77.2561180  79.5120601   9.9288643  78.3555077  78.5376754
  11.2866109  75.1402679  77.5627244  12.1092178  74.6663157  77.4406134
  11.5304173  75.9193163  78.0625930   9.9274344  78.1690937  67.8590145
  10.6482706  78.5472190  67.3553862   9.3039648  78.8879814  67.9625123
  14.0705466  78.8736086  68.7948478  14.2869081  79.7560724  68.4937306
  13.5899534  78.4822300  68.0654120   8.8104688  81.8321800  75.3719222
   8.6649269  82.1462103  76.2643504   8.3329891  82.4506700  74.8190121
  10.6701071  78.8224348  75.4200112  10.6562639  77.9265441  75.0832410
  11.3873499  78.8295011  76.0538398  12.5227201  79.2561688  77.4653239
  12.2644979  80.1778758  77.4637570  11.9912242  78.8592122  78.1553703
  17.4673390  92.3612475  70.2443325  17.6410268  91.7958897  69.4917177
  17.9602281  93.1613370  70.0622815   3.2850350  84.3727144  78.3106883
   2.7403818  85.1486952  78.4427158   4.1629700  84.7197948  78.1526005
  10.0737967  77.7038728  70.6887682  10.1953878  76.7755374  70.8878569
   9.7840009  77.7177414  69.7765997  12.9429157  75.3893638  73.8254402
  12.9650854  75.4532971  72.8706381  13.3597216  74.5498147  74.0194908
  23.3212781  85.1248898  71.8633624  23.7643927  84.3756223  71.4652748
  22.4439292  85.1159034  71.4807356  18.4548563  91.6779239  67.3440223
  19.1499467  92.2985932  67.5627538  18.7971713  90.8274591  67.6192601
   4.0716372  83.4997040  81.2037040   3.3298108  83.6479676  81.7901671
   3.7509116  83.7605306  80.3403790  20.3539986  89.1278945  68.8727554
  20.8791310  89.4666218  68.1476874  20.2662338  88.1925960  68.6890688
  12.0160034  93.0413018  81.0017430  12.3247161  92.7962165  81.8740130
  12.8135516  93.2459657  80.5136301  12.0380646  95.1950928  73.2322807
  11.5985637  94.7027307  73.9255664  12.7888763  94.6523896  72.9914882
   4.5172985  91.3862469  73.2347435   5.3431005  91.0866241  72.8546078
   4.1667037  90.6170091  73.6837224   9.4854519  90.7388937  75.3045109
   8.8634528  90.0759642  75.0047336  10.1559386  90.7650069  74.6218756
   2.7181591  89.3048795  74.1936369   1.8813499  88.8770970  74.0120370
   2.6905236  89.4981239  75.1307160   9.5579046  79.2170725  84.8977615
   9.6067202  80.0932848  84.5155384  10.1001560  78.6748118  84.3249258
  20.0433892  89.7611848  84.1778752  19.2529436  89.7435987  83.6383251
  19.8067246  90.3000142  84.9327788  20.1631767  86.6104315  81.4911480
  20.2129772  86.4454322  82.4327003  20.0545690  85.7431574  81.1009361
   9.0468026  89.2892861  68.7803569   9.1956146  89.9728325  68.1270242
   9.8534469  89.2697951  69.2953025  17.4535529  82.5935243  82.8070787
  18.3545392  82.4541708  82.5154785  17.5283504  82.7589698  83.7468964
  11.7878335  79.9702098  81.6523973  10.9181644  80.2635664  81.3806562
  12.0237815  80.5542543  82.3731237  21.6649964  89.0301256  81.7353502
  21.3734772  89.3931237  82.5716963  21.0522095  88.3168265  81.5566834
  22.8645646  86.5954136  74.2556072  23.6992537  87.0343940  74.4193632
  23.0004775  86.1192789  73.4364318  19.9137152  84.1533871  80.2033560
  20.3891274  84.3461517  79.3952411  18.9902717  84.2093057  79.9576943
   6.8020659  85.3158038  69.7864638   6.5566700  84.4120368  69.9844848
   6.9716573  85.3175189  68.8444116  14.4917368  76.1881715  79.1689394
  15.0099312  76.9242741  78.8435882  14.1372501  76.4945708  80.0036153
   6.0716306  81.0486396  67.2850799   5.3785551  81.1230751  66.6290835
   5.8268058  80.2846739  67.8072316  14.7429963  72.6081997  74.6890290
  15.0231716  71.9405186  75.3150717  15.5280570  72.8011093  74.1764954
  12.5463431  91.7840991  66.2515317  11.9737398  92.4031178  65.7985788
  13.1196225  92.3340353  66.7855238  18.6138821  81.0299631  78.4361865
  19.5656244  81.1297729  78.4574089  18.4442271  80.2377900  78.9459950
  16.6353200  78.1155214  78.6221266  16.0403133  78.3960227  77.9267755
  16.3502897  78.6049115  79.3938007  15.7660691  92.0678141  67.3823899
  16.6991364  92.0023703  67.5856774  15.6783904  92.9034408  66.9238431
  18.3948708  91.3844011  64.3427846  18.3162339  91.0503875  65.2363604
  19.2158374  91.8765779  64.3419319  21.0926899  84.2505751  77.5504165
  21.0603219  83.3121752  77.7363849  21.7027522  84.3289787  76.8169990
  12.9310230  83.1201804  63.5931369  13.8769334  82.9908012  63.6619787
  12.5524475  82.3816466  64.0700797  21.2421387  81.0416794  77.5962448
  20.7260436  80.2575251  77.4092377  22.1261336  80.7135511  77.7608968
  18.9032114  74.7857810  73.5558261  18.7056935  74.4772898  74.4401593
  19.5131820  75.5119449  73.6856191  26.9103449  85.3121758  76.6910202
  27.6406837  85.0507046  77.2517905  26.3010394  84.5750480  76.7312270
  24.9918746  83.4529620  77.2884653  24.2651909  83.3185585  76.6801145
  24.5766033  83.7606449  78.0941371  12.8148922  87.1719550  85.0532026
  13.7351932  87.3498149  85.2472073  12.7798505  86.2275595  84.9011725
  11.1153147  81.0451780  63.5286254  10.2084602  80.7484893  63.6048968
  11.3929128  80.7481598  62.6620540   2.0331087  82.3658144  73.9785301
   1.7133871  81.5123452  73.6859675   1.4864515  82.5806722  74.7343268
   5.8110995  85.0820585  77.6954807   6.0297004  86.0137692  77.7142841
   6.2236768  84.7228559  78.4809611  12.7315212  75.5888670  69.6830496
  11.9215941  75.2435755  70.0585742  13.4199629  75.2796214  70.2718107
  14.6605761  74.6666717  71.3054792  15.2136799  75.0862170  71.9644815
  14.8975847  73.7402465  71.3477748  10.6838860  80.6553790  87.0857556
  10.5835587  81.6048147  87.0169647  10.4660402  80.3272029  86.2133626
   9.8851931  77.9038715  63.6698233  10.7471095  78.2293614  63.9294051
  10.0702276  77.1170211  63.1571299   1.9019347  85.9861055  75.9478422
   1.2082819  85.5715008  75.4348377   2.6492338  86.0281592  75.3511841
  18.0384568  76.7767242  70.8133456  17.4583237  77.4352046  70.4311509
  17.7720501  75.9544586  70.4020874  16.4888134  76.1772300  73.0154777
  16.9887913  76.2888834  72.2069096  17.1323742  75.8733352  73.6555585
  10.5470130  84.0850929  85.9022618  10.0637212  84.8851289  86.1086507
  10.6331069  84.0958874  84.9490062   3.8156090  85.9179309  73.8244437
   3.7926778  86.0166996  72.8726320   4.1256726  86.7644460  74.1461603
   6.4743468  87.9755464  77.9391052   7.4286721  87.9439406  77.8720983
   6.2755991  87.5146088  78.7541277   7.0642850  86.5456580  80.5061849
   7.8835739  87.0400659  80.5296686   7.3379657  85.6288548  80.4779417
  16.8209446  78.9367332  69.8689805  15.9335301  79.2216983  69.6509999
  17.2363435  78.7761096  69.0217082  20.1723982  78.9613853  73.5844144
  20.9484372  79.4510306  73.8568761  19.4472116  79.3871907  74.0416013
  22.6096541  79.6741472  74.6418085  23.2041031  79.4337208  73.9311393
  22.6823124  78.9548603  75.2691621   4.8293696  93.5175083  74.9561249
   4.6948164  92.7575484  74.3899247   4.4125759  94.2415983  74.4890038
  15.9652659  88.7012007  63.9637825  16.6688509  88.9062009  64.5795480
  15.2415308  89.2688769  64.2286908  16.7950470  84.4521868  70.0840095
  16.7385671  84.9090420  69.2447727  17.3478812  83.6912553  69.9062938
  20.6055276  80.2411600  70.9090214  20.3492210  79.8408236  71.7398422
  19.9808144  80.9555394  70.7840354  24.9167613  82.9807673  73.4161506
  24.3567171  83.0500863  74.1893068  24.3111117  82.8048658  72.6961002
   7.9862822  94.4144400  75.1679692   7.8695206  95.3589833  75.0658382
   7.1655268  94.1117962  75.5565491  17.8739357  89.1394536  66.0136285
  18.7084961  88.7075735  65.8313760  17.7123700  88.9676550  66.9413179
  17.5285249  85.6426649  67.3792624  17.4734053  85.4770921  66.4381068
  16.9031304  86.3502682  67.5354814   2.3177764  80.8794714  81.2054046
   2.9636627  80.3693668  81.6941271   2.1094915  81.6163395  81.7797472
  14.8431156  87.9475561  86.7046187  15.7122316  88.1216214  86.3432822
  14.3637908  88.7669978  86.5821916  10.8381374  75.1434758  66.9577942
  10.8260044  76.0876598  67.1146213  11.7304796  74.9604904  66.6637404
   9.0117336  95.0672662  78.3835620   9.9144583  95.0996273  78.7002115
   8.7854706  94.1373113  78.3981956  10.7670938  93.8203649  75.0445699
   9.8166569  93.8205510  74.9310071  11.0703424  93.0736383  74.5281734
  14.6533494  71.7377535  71.2123879  13.8865890  71.1836022  71.3580562
  15.0644199  71.8099404  72.0738031   6.6575255  78.0262331  85.3029060
   7.5206716  77.6699136  85.5132385   6.0840666  77.6876226  85.9904465
  26.5023632  99.6564187  76.1091461  27.1402042  99.5370935  75.4054802
  26.3844475 100.6045031  76.1679414  23.3113338  99.6091615  76.0452986
  22.9731850  99.4932680  75.1573521  24.1803106  99.2082780  76.0253992
  19.1700154 101.4627092  72.0349877  18.6065019 101.3717029  71.2666165
  19.0552549 100.6426996  72.5152370  23.7933121 100.7626467  82.0039192
  23.7821762 100.3679265  81.1319695  23.9553761 100.0292540  82.5972963
  16.7164586 102.9578283  74.8734098  17.5085878 102.6169108  74.4580397
  16.9561236 103.0673258  75.7936251  24.7499713 105.1298059  67.3464342
  24.0987692 105.7152140  66.9598356  25.5444075 105.6604254  67.4059380
  18.6755340 102.2187197  67.7451476  19.4486216 101.6716184  67.6064352
  19.0280739 103.0831446  67.9565938  20.5140382 103.5463579  80.9518376
  20.2230248 104.4509210  80.8365042  21.1497367 103.5880106  81.6662445
  21.4396589 100.9240427  77.5419735  22.0360161 100.6996450  76.8276698
  21.4971561 100.1825173  78.1445183  21.0121617  98.3779863  65.3769926
  21.2647138  97.8561384  64.6153389  20.0746177  98.2146008  65.4796610
  26.0564900  97.3815641  73.1844670  26.8427990  96.9635064  72.8335087
  26.3203605  98.2861733  73.3526318  26.2274978 102.8188491  67.8833326
  25.5920811 102.8923118  68.5954231  25.8972384 103.4082090  67.2052406
  31.4573327  97.3190874  74.0877648  32.1898499  96.7490091  74.3215478
  30.7012683  96.9312475  74.5284154  20.7317906 100.2807969  67.5794301
  20.6154164  99.6052872  68.2475386  20.8420166  99.7940343  66.7626454
  23.0749447  99.7418116  71.2840990  22.7107654  99.2148737  71.9953912
  23.9316563  99.3516585  71.1107476  28.9798748  91.0312448  78.5472257
  28.6482073  91.9007859  78.3233472  28.3844361  90.7148732  79.2266287
  22.7154934  94.7708015  66.2802339  22.8829336  95.6388252  66.6472810
  22.5252103  94.9335297  65.3563628  25.4730267 103.2324994  77.9468169
  25.1730990 104.1350033  77.8383977  25.1281327 102.9657178  78.7989322
  18.9242749  99.6838791  73.9804874  17.9993245  99.5515005  74.1882566
  19.1727162 100.4633010  74.4774816  28.8727411  95.7507535  75.6265607
  27.9644288  95.6822943  75.3324368  28.8215007  96.2279479  76.4547432
  22.6944155  97.2265673  67.2649006  22.5743780  97.6722724  68.1034486
  21.9996743  97.5750991  66.7062544  16.2851560  99.3272065  74.8148663
  16.4143941  99.5806544  75.7288075  15.6049011  99.9199773  74.4953318
  20.4551047 109.9969315  70.9139137  20.3775077 110.9477140  70.9927618
  19.8512691 109.6515187  71.5714063  22.9468277  97.1697180  83.5700504
  22.1701611  97.7291100  83.5603369  23.5858840  97.6553963  84.0915374
  30.7389058  93.9523973  77.4043481  30.0963438  94.2456506  76.7583275
  30.2343986  93.8376893  78.2096677  28.3929221  97.6987146  68.0929340
  29.3047077  97.9314533  67.9177037  27.8838868  98.2824190  67.5304418
  21.2014649  99.9782633  83.1318471  21.9429334 100.5167677  82.8553295
  20.4951635 100.6048922  83.2890023  26.6769989 102.1211774  81.7290632
  27.0853345 101.6794184  80.9845265  25.9547250 101.5464401  81.9824825
  23.0301059  97.0584381  79.1024189  23.8762254  97.4823794  79.2458838
  22.9699697  96.4018005  79.7962753  26.9998803 102.6812965  75.4842921
  26.3707666 102.8458679  74.7818989  26.6124466 103.0954574  76.2553885
  30.8788035 103.6167402  72.8387285  30.1939074 103.9966304  72.2884318
  30.9631885 104.2262729  73.5719233  26.1800504  94.7188749  80.7605363
  25.9361436  95.4730810  80.2239639  26.4560435  95.0974097  81.5952610
  28.1338967 101.2627361  79.4382629  28.3455862 101.9059121  78.7617010
  28.0868715 100.4289678  78.9704559  25.7365196  93.8745182  76.3419201
  24.8749675  94.1726436  76.6335938  25.7627631  94.0915581  75.4100233
  22.5526765 102.4187373  72.7493006  23.0165111 102.6975076  71.9597629
  22.2883563 101.5170817  72.5666097  19.4450846 101.9658854  75.6872770
  20.0152203 102.3946123  75.0490254  20.0358958 101.6841439  76.3856955
  21.4895651  98.5410525  69.5582572  22.1919695  98.9931569  70.0256498
  21.1576280  97.8994344  70.1862465  19.9376013  97.1322282  83.9333781
  19.3074674  97.8138562  84.1669178  19.8312101  97.0205363  82.9886919
  15.2320985  96.7994078  74.8599705  14.4420039  97.0551606  74.3839816
  15.7232233  97.6142416  74.9651746  29.2484795 104.1399317  77.6104986
  30.0702239 103.7379504  77.3287668  29.2447198 104.0367551  78.5621102
  17.1835731  97.1638657  71.8183182  16.3866894  97.2757351  72.3366678
  16.9561323  97.5025309  70.9524072  23.0141398 103.6883360  79.7665696
  23.0785831 104.1503767  80.6023868  22.3052322 103.0580725  79.8948006
  13.5158688  97.0524568  77.2914696  13.7666727  97.9371578  77.5572272
  14.0518237  96.8729170  76.5189788  37.3390788 100.4838065  73.9589957
  36.5854496  99.9145463  73.8033962  37.4738329 100.4500730  74.9060592
  22.7289416 105.3551468  69.6344677  22.5935091 106.2003003  70.0629525
  23.2699229 105.5570745  68.8710611  19.2156756  91.4343047  86.2959032
  18.8223701  90.8809246  86.9706676  20.0322896  91.7453626  86.6865550
  16.1818813 102.8726906  70.2072602  16.6943334 103.6670156  70.3578167
  16.8341526 102.1753196  70.1406203  17.9913698 105.9892662  72.2895355
  18.1680326 106.9110627  72.1016339  18.7870532 105.6751081  72.7189735
  22.1324717  92.8500927  83.8879289  22.8734430  93.4508080  83.8083751
  22.3642639  92.1078564  83.3297331  17.2766055  98.0357294  82.1657518
  17.1619570  97.1342551  82.4664617  16.4210572  98.2820991  81.8142335
  24.3557892 105.9775034  83.7645019  23.9121747 105.1911413  83.4465923
  25.0175106 106.1654185  83.0988910  19.1145014 107.5070836  78.2905697
  19.6652439 107.3787899  77.5182691  18.2756489 107.8065725  77.9400590
  26.4539130 106.2577834  81.7926420  26.4357606 107.0786715  81.3006689
  27.3759051 106.1331909  82.0176561  22.9112185 103.7721964  82.6349929
  23.4440521 103.0110252  82.4049236  22.3826266 103.4795615  83.3774083
  26.0781880  88.8782030  78.1643570  25.7346149  89.7683671  78.0882681
  26.4460842  88.6883687  77.3013155  14.1467730 101.2015560  70.9832172
  14.9842952 101.6112568  70.7665880  14.3245998 100.2615002  70.9532366
  26.0432162  98.8690641  66.6716005  25.5278786  99.6395245  66.9104393
  25.7709471  98.1955777  67.2949067  23.6279273  93.7140341  71.7301244
  22.7720870  93.3247192  71.5506882  24.0406225  93.7932302  70.8701029
  25.1578420  91.2486685  76.1292804  24.6543216  91.2116820  75.3160609
  25.4509027  92.1579427  76.1889460  21.4021306  91.3325414  75.1358985
  22.2674303  91.1368223  74.7764875  21.4698815  91.1035766  76.0628342
  31.0166436 101.6222995  68.6069179  30.2395879 101.2834155  68.1624341
  31.6957917 101.6275618  67.9324144  25.8318465  96.7417733  68.4975787
  25.5268601  97.0563882  69.3485930  26.7848908  96.8199153  68.5403120
  24.2764897 102.9007956  70.1468741  23.7486259 102.1660716  69.8341978
  23.7752400 103.6782632  69.9008709  29.2557743 101.0956977  75.2635787
  28.5981418 101.7856238  75.3515915  30.0598143 101.4853408  75.6069773
  19.0083625  93.5627622  72.5075352  19.5827377  93.3402804  71.7748545
  19.5954607  93.6316317  73.2603953  28.0663202  99.4501349  73.3139729
  28.5795084 100.0831341  73.8161438  28.7164426  98.8502545  72.9483089
  19.3353212  95.5932083  66.5271237  18.4990524  95.9306770  66.8480512
  19.1957982  95.4581063  65.5898374  21.3106293  90.4368871  71.2350421
  20.6570705  90.1217888  70.6107036  21.2686767  89.8144612  71.9610244
  22.4217498 100.7188166  63.1503714  21.5144559 100.4877420  63.3494863
  22.9188529  99.9225786  63.3377695  25.3285576 109.4285673  66.0700400
  24.6547275 109.7317370  66.6785358  25.7151398 110.2314754  65.7205857
  24.5444033  96.9250805  75.5598069  23.6266594  97.1465752  75.4019757
  24.9604177  96.9997115  74.7009776  25.3279081  98.3242220  70.6900749
  26.0750900  98.8363618  70.3807871  25.5970670  98.0026273  71.5505143
  23.6005731 100.8200761  67.6727704  22.6916950 100.5359794  67.7700173
  23.6300815 101.2399840  66.8131011  28.8324998 104.4307351  71.4418871
  28.3787325 103.5898261  71.4984062  28.2018965 105.0668749  71.7793651
  27.7757918  95.3599337  72.6719539  27.0380675  94.8476723  73.0029781
  28.0284691  94.9199718  71.8602816  27.2757938 106.2683847  72.3768689
  27.5680912 106.8288904  71.6581055  27.7856558 106.5612408  73.1321848
  27.8769545  88.1375589  73.2661308  28.1828422  87.2772952  72.9787223
  28.6022150  88.7293209  73.0660302  14.1693901  98.5406275  71.6542906
  13.9718301  97.9475636  70.9293972  13.6140565  98.2358485  72.3718845
  22.1490625  98.4329382  73.7737499  22.2039235  97.4803218  73.6979976
  21.3381827  98.5888821  74.2578797  23.2981819 102.3609505  65.0115782
  22.8601249 101.6445364  64.5521420  24.0392260 102.5885620  64.4500874
  20.0882985  97.0506442  71.5327878  19.2750850  97.3500612  71.9393070
  20.5841979  96.6562130  72.2502360  22.2391563 107.0464198  73.4662143
  22.1967742 107.2725045  72.5370675  23.1554262 106.8127573  73.6147944
  25.6857197  97.5148266  80.3642772  26.0406584  97.7419739  81.2237238
  26.3329328  97.8466643  79.7420027  31.4154934 100.6366702  71.0692101
  31.2772832 100.8268298  70.1413290  31.0591152 101.3986085  71.5260152
  19.5797060  94.6224797  77.1489113  20.2196439  94.4813556  76.4512076
  18.7474590  94.3359310  76.7727715  31.4424313 102.7043229  76.0803372
  31.8760820 102.6118518  76.9286426  32.1555894 102.6800729  75.4423388
  20.3557364 103.9227227  73.2624105  21.1497962 103.4277548  73.0606680
  19.6449056 103.3945091  72.8991811  25.1752208 106.3045323  77.6136473
  25.2289230 106.8736259  78.3814189  24.3066989 106.4747208  77.2490510
  16.6640127  98.0670309  69.3383858  15.7337715  98.0054765  69.5553820
  16.7597599  97.5446262  68.5420499  16.5825676  94.5925122  71.9262100
  16.8432493  95.5070455  71.8171260  17.4042848  94.1249565  72.0758712
  18.0550601  96.0062879  79.0960924  18.7273655  95.7980241  78.4473573
  17.2280388  95.8084965  78.6566156  32.3039863 102.7466930  78.6136258
  32.4975753 103.6512740  78.8595533  32.2040481 102.2874349  79.4474843
  23.9576173  92.6324820  81.1126585  23.3104088  93.3314770  81.0191061
  24.7277189  93.0660964  81.4802833  27.3654971 102.8973672  84.1877138
  27.2140478 102.6684224  83.2707222  27.3559651 103.8544274  84.2008483
  24.1340308 100.4705585  79.1723405  25.0632368 100.6216745  78.9992372
  23.7131338 100.5589606  78.3172051  22.9328640 104.4956249  76.9421942
  22.7939725 104.1275034  77.8147880  22.1443236 105.0103889  76.7705900
  23.5276792 109.5965346  68.2847479  23.7028547 109.1253389  69.0993102
  22.8409580 110.2231112  68.5128740  24.4833855 103.8737852  74.3310780
  24.1483687 103.8338622  75.2268430  23.9837800 103.2082568  73.8581190
  18.4578099  99.2805482  79.8563361  18.3197897  98.5485721  80.4574900
  19.3683022  99.1914382  79.5747549  27.4193046 101.2193886  64.6047840
  26.8022217 100.4940715  64.5080893  26.9509535 101.9803247  64.2614914
  21.0860399  98.9925441  79.3447041  21.7960018  98.3518634  79.3033659
  21.0429708  99.2438336  80.2673222  29.0747178 105.9292795  82.2653620
  29.0159724 105.2452015  81.5984203  29.4766696 106.6711785  81.8134246
  19.7989333  95.9790659  81.1642680  19.2626690  95.5281398  81.8164277
  19.2106042  96.1136568  80.4213145  19.2091592  95.4379311  63.7269144
  18.3321059  95.3168112  63.3631391  19.6849345  94.6465389  63.4748033
  29.0764585 103.8932379  80.4967600  28.1891364 103.5558301  80.6193999
  29.6463136 103.1615410  80.7336365  10.7293732 100.2256471  73.8210651
  11.4164772  99.9118201  73.2331667  10.5741861 101.1297835  73.5477903
  15.5328455  95.1146667  78.2495675  15.4486643  94.5072337  77.5146085
  14.7111161  95.6055685  78.2505171  22.6065739 108.5533831  77.4628843
  22.5335910 109.3588803  77.9748148  22.1643132 108.7525797  76.6376864
  22.3955518 107.7905601  70.9731665  21.6123040 108.3327281  71.0669889
  23.0948263 108.3079581  71.3725906  25.7052168  93.6000231  73.6165870
  26.2020868  92.8470193  73.2966940  24.9339150  93.6364547  73.0509079
  33.5581926  99.3040596  75.2584162  33.5471802 100.1865312  74.8878095
  32.6899305  98.9512147  75.0638699  25.0664422 108.4520665  79.6187002
  25.7792394 109.0868130  79.5462903  24.5754451 108.5484531  78.8027004
  26.7881949 102.3571918  71.1904293  25.8538228 102.4773380  71.0208998
  26.9658618 101.4544385  70.9264303  22.2887137  95.7417614  73.3437555
  21.9184925  95.1888654  74.0318460  22.7846230  95.1375747  72.7912555
  30.1754500  98.1989237  71.7254328  30.6414953  99.0317229  71.6514630
  30.6262001  97.7334219  72.4299586  20.1176336 106.2015109  80.4392573
  20.8185795 106.8351592  80.5921967  19.6471451 106.5429840  79.6788212
  28.2430732 104.5433058  68.7240480  28.5190575 104.4289653  69.6334354
  27.3735230 104.1450543  68.6852653  28.1471163  90.5669824  75.7645229
  27.2334243  90.7974051  75.9327436  28.5764265  90.6508268  76.6159261
  27.9177622  98.7559716  78.2645123  27.2649072  99.0035624  77.6097576
  28.2958002  97.9423854  77.9307600  24.8784796 108.7919409  72.3673293
  25.0607190 107.9741065  72.8301046  25.7017782 109.0087101  71.9298183
  25.2126961 107.7187594  69.6288342  25.7414728 107.2080049  69.0158504
  25.4755181 107.4030125  70.4933875  23.9665195  99.4979527  84.7511160
  23.2905832  99.3973656  85.4213535  24.7892829  99.3418741  85.2147157
  15.7144054 105.7351464  77.3723675  16.2997491 104.9895152  77.5051579
  15.5168892 106.0455420  78.2560339  18.5682709 108.7702711  72.3886118
  17.8993084 109.2548839  71.9050158  18.4295579 109.0171931  73.3029496
  10.3061709  98.3057064  76.0928118  10.3445808  97.7720655  76.8865236
   9.8002001  97.7792269  75.4739096  22.7087978 110.8046455  78.9868776
  23.2606286 110.9678076  79.7517861  23.0494171 111.3950892  78.3148801
  17.6852471  93.1521604  79.5890661  17.7493797  94.0136435  79.1768058
  17.6219591  92.5395606  78.8563019  17.1604743  95.2244737  83.2363695
  17.7876782  94.8421814  83.8501219  16.3032662  95.0058939  83.6019387
  27.5598852 105.6307712  84.8417430  28.1038756 106.2437670  84.3472385
  26.9785697 106.1887290  85.3584443  13.9370286  97.0321166  69.1682050
  14.2323727  96.1231844  69.1149103  13.0358322  97.0108905  68.8463052
  25.8456365 108.7528430  75.9732458  25.7207504 107.9518170  75.4643404
  26.5035456 109.2474623  75.4846428  17.4664533  95.1077163  75.1509598
  16.7451119  95.7213130  75.0117072  18.2557789  95.6434927  75.0726244
  27.9091273 106.5537450  77.6012008  26.9621609 106.4342801  77.5290335
  28.2574046 105.6659948  77.6838270  20.2690847  92.4431589  81.4250250
  20.7925248  92.6893886  82.1876559  20.0503180  93.2751624  81.0053387
  15.6658128  94.7135264  69.2921375  15.3370834  93.8332643  69.1096481
  16.0197498  94.6582932  70.1797764  24.9137707 106.3490166  73.8016360
  24.7662669 105.4206874  73.9823930  25.7391200 106.3710257  73.3173436
  18.7799951  95.0008233  69.6596853  19.1196023  95.5294155  68.9375461
  19.2272071  95.3388640  70.4355419  28.5171828 107.1718725  74.8881233
  29.4418376 106.9661586  74.7505684  28.3487132 106.9235126  75.7970575
  21.4743392  93.3845284  79.1099921  21.1340212  92.5853097  79.5120601
  20.7682398  93.6846995  78.5376754  22.1259864  90.4694597  77.5627244
  22.9485933  89.9955075  77.4406134  22.3697927  91.2485080  78.0625930
  20.7668098  93.4982855  67.8590145  21.4876461  93.8764108  67.3553862
  20.1433402  94.2171732  67.9625123  24.9099221  94.2028004  68.7948478
  25.1262835  95.0852642  68.4937306  24.4293288  93.8114217  68.0654120
  19.6498442  97.1613717  75.3719222  19.5043023  97.4754020  76.2643504
  19.1723646  97.7798618  74.8190121  21.5094825  94.1516265  75.4200112
  21.4956394  93.2557359  75.0832410  22.2267253  94.1586929  76.0538398
  23.3620956  94.5853605  77.4653239  23.1038734  95.5070676  77.4637570
  22.8305996  94.1884040  78.1553703  28.3067145 107.6904393  70.2443325
  28.4804022 107.1250815  69.4917177  28.7996036 108.4905287  70.0622815
  14.1244104  99.7019062  78.3106883  13.5797573 100.4778870  78.4427158
  15.0023454 100.0489866  78.1526005  20.9131721  93.0330646  70.6887682
  21.0347632  92.1047292  70.8878569  20.6233763  93.0469331  69.7765997
  23.7822911  90.7185556  73.8254402  23.8044608  90.7824889  72.8706381
  24.1990970  89.8790065  74.0194908  34.1606536 100.4540816  71.8633624
  34.6037682  99.7048141  71.4652748  33.2833046 100.4450952  71.4807356
  29.2942317 107.0071157  67.3440223  29.9893222 107.6277850  67.5627538
  29.6365467 106.1566508  67.6192601  14.9110126  98.8288958  81.2037040
  14.1691862  98.9771593  81.7901671  14.5902871  99.0897224  80.3403790
  31.1933740 104.4570863  68.8727554  31.7185064 104.7958135  68.1476874
  31.1056093 103.5217878  68.6890688  22.8553789 108.3704936  81.0017430
  23.1640915 108.1254083  81.8740130  23.6529271 108.5751575  80.5136301
  22.8774401 110.5242846  73.2322807  22.4379391 110.0319224  73.9255664
  23.6282518 109.9815813  72.9914882  15.3566740 106.7154387  73.2347435
  16.1824760 106.4158159  72.8546078  15.0060792 105.9462009  73.6837224
  20.3248273 106.0680855  75.3045109  19.7028282 105.4051560  75.0047336
  20.9953140 106.0941987  74.6218756  13.5575345 104.6340713  74.1936369
  12.7207253 104.2062887  74.0120370  13.5298990 104.8273156  75.1307160
  20.3972801  94.5462643  84.8977615  20.4460956  95.4224766  84.5155384
  20.9395315  94.0040036  84.3249258  30.8827646 105.0903766  84.1778752
  30.0923190 105.0727905  83.6383251  30.6461001 105.6292060  84.9327788
  31.0025521 101.9396233  81.4911480  31.0523526 101.7746240  82.4327003
  30.8939445 101.0723492  81.1009361  19.8861780 104.6184778  68.7803569
  20.0349900 105.3020243  68.1270242  20.6928224 104.5989868  69.2953025
  28.2929284  97.9227161  82.8070787  29.1939147  97.7833625  82.5154785
  28.3677258  98.0881615  83.7468964  22.6272089  95.2994015  81.6523973
  21.7575398  95.5927581  81.3806562  22.8631569  95.8834460  82.3731237
  32.5043718 104.3593174  81.7353502  32.2128526 104.7223155  82.5716963
  31.8915849 103.6460182  81.5566834  33.7039400 101.9246054  74.2556072
  34.5386292 102.3635858  74.4193632  33.8398529 101.4484707  73.4364318
  30.7530906  99.4825789  80.2033560  31.2285028  99.6753435  79.3952411
  29.8296472  99.5384974  79.9576943  17.6414413 100.6449956  69.7864638
  17.3960455  99.7412286  69.9844848  17.8110328 100.6467106  68.8444116
  25.3311123  91.5173632  79.1689394  25.8493067  92.2534659  78.8435882
  24.9766256  91.8237626  80.0036153  16.9110061  96.3778313  67.2850799
  16.2179306  96.4522668  66.6290835  16.6661812  95.6138657  67.8072316
  25.5823717  87.9373915  74.6890290  25.8625471  87.2697104  75.3150717
  26.3674324  88.1303010  74.1764954  23.3857186 107.1132909  66.2515317
  22.8131153 107.7323096  65.7985788  23.9589979 107.6632270  66.7855238
  29.4532575  96.3591549  78.4361865  30.4049998  96.4589646  78.4574089
  29.2836026  95.5669817  78.9459950  27.4746955  93.4447132  78.6221266
  26.8796887  93.7252145  77.9267755  27.1896652  93.9341033  79.3938007
  26.6054445 107.3970059  67.3823899  27.5385119 107.3315620  67.5856774
  26.5177658 108.2326326  66.9238431  29.2342462 106.7135929  64.3427846
  29.1556094 106.3795793  65.2363604  30.0552129 107.2057697  64.3419319
  31.9320653  99.5797668  77.5504165  31.8996973  98.6413669  77.7363849
  32.5421277  99.6581705  76.8169990  23.7703984  98.4493721  63.5931369
  24.7163089  98.3199930  63.6619787  23.3918229  97.7108383  64.0700797
  32.0815142  96.3708712  77.5962448  31.5654190  95.5867169  77.4092377
  32.9655090  96.0427428  77.7608968  29.7425869  90.1149727  73.5558261
  29.5450690  89.8064816  74.4401593  30.3525574  90.8411366  73.6856191
  37.7497203 100.6413675  76.6910202  38.4800592 100.3798963  77.2517905
  37.1404149  99.9042397  76.7312270  35.8312500  98.7821538  77.2884653
  35.1045664  98.6477503  76.6801145  35.4159787  99.0898366  78.0941371
  23.6542677 102.5011468  85.0532026  24.5745686 102.6790067  85.2472073
  23.6192260 101.5567513  84.9011725  21.9546901  96.3743698  63.5286254
  21.0478357  96.0776811  63.6048968  22.2322882  96.0773516  62.6620540
  12.8724842  97.6950061  73.9785301  12.5527626  96.8415369  73.6859675
  12.3258270  97.9098639  74.7343268  16.6504749 100.4112502  77.6954807
  16.8690759 101.3429610  77.7142841  17.0630523 100.0520477  78.4809611
  23.5708967  90.9180588  69.6830496  22.7609695  90.5727672  70.0585742
  24.2593384  90.6088131  70.2718107  25.4999515  89.9958634  71.3054792
  26.0530554  90.4154088  71.9644815  25.7369602  89.0694382  71.3477748
  21.5232614  95.9845708  87.0857556  21.4229341  96.9340065  87.0169647
  21.3054157  95.6563947  86.2133626  20.7245686  93.2330633  63.6698233
  21.5864850  93.5585531  63.9294051  20.9096030  92.4462129  63.1571299
  12.7413102 101.3152973  75.9478422  12.0476573 100.9006926  75.4348377
  13.4886093 101.3573509  75.3511841  28.8778322  92.1059159  70.8133456
  28.2976991  92.7643964  70.4311509  28.6114255  91.2836504  70.4020874
  27.3281889  91.5064217  73.0154777  27.8281667  91.6180752  72.2069096
  27.9717497  91.2025270  73.6555585  21.3863885  99.4142847  85.9022618
  20.9030966 100.2143207  86.1086507  21.4724824  99.4250792  84.9490062
  14.6549844 101.2471226  73.8244437  14.6320532 101.3458914  72.8726320
  14.9650481 102.0936377  74.1461603  17.3137222 103.3047382  77.9391052
  18.2680476 103.2731324  77.8720983  17.1149746 102.8438005  78.7541277
  17.9036604 101.8748498  80.5061849  18.7229493 102.3692576  80.5296686
  18.1773412 100.9580466  80.4779417  27.6603200  94.2659250  69.8689805
  26.7729055  94.5508900  69.6509999  28.0757189  94.1053013  69.0217082
  31.0117736  94.2905771  73.5844144  31.7878127  94.7802223  73.8568761
  30.2865871  94.7163825  74.0416013  33.4490295  95.0033390  74.6418085
  34.0434786  94.7629126  73.9311393  33.5216879  94.2840521  75.2691621
  15.6687451 108.8467001  74.9561249  15.5341919 108.0867402  74.3899247
  15.2519513 109.5707901  74.4890038  26.8046414 104.0303925  63.9637825
  27.5082264 104.2353927  64.5795480  26.0809063 104.5980686  64.2286908
  27.6344224  99.7813786  70.0840095  27.5779425 100.2382337  69.2447727
  28.1872567  99.0204470  69.9062938  31.4449030  95.5703518  70.9090214
  31.1885964  95.1700153  71.7398422  30.8201898  96.2847312  70.7840354
  35.7561368  98.3099591  73.4161506  35.1960926  98.3792780  74.1893068
  35.1504871  98.1340576  72.6961002  18.8256577 109.7436318  75.1679692
  18.7088961 110.6881751  75.0658382  18.0049023 109.4409880  75.5565491
  28.7133111 104.4686454  66.0136285  29.5478715 104.0367652  65.8313760
  28.5517454 104.2968467  66.9413179  28.3679003 100.9718567  67.3792624
  28.3127807 100.8062838  66.4381068  27.7425059 101.6794600  67.5354814
  13.1571518  96.2086631  81.2054046  13.8030382  95.6985585  81.6941271
  12.9488670  96.9455313  81.7797472  25.6824911 103.2767479  86.7046187
  26.5516070 103.4508131  86.3432822  25.2031662 104.0961896  86.5821916
  21.6775129  90.4726676  66.9577942  21.6653799  91.4168516  67.1146213
  22.5698551  90.2896821  66.6637404  19.8511091 110.3964580  78.3835620
  20.7538338 110.4288190  78.7002115  19.6248461 109.4665031  78.3981956
  21.6064693 109.1495566  75.0445699  20.6560324 109.1497428  74.9310071
  21.9097179 108.4028301  74.5281734  25.4927248  87.0669453  71.2123879
  24.7259644  86.5127939  71.3580562  25.9037953  87.1391321  72.0738031
  17.4969009  93.3554248  85.3029060  18.3600471  92.9991053  85.5132385
  16.9234420  93.0168143  85.9904465  37.3417386 114.9856105  76.1091461
  37.9795796 114.8662852  75.4054802  37.2238229 115.9336949  76.1679414
  34.1507093 114.9383533  76.0452986  33.8125604 114.8224598  75.1573521
  35.0196861 114.5374698  76.0253992  34.6326876 116.0918385  82.0039192
  34.6215516 115.6971183  81.1319695  34.7947515 115.3584457  82.5972963
  31.8515372 113.7071780  65.3769926  32.1040893 113.1853302  64.6153389
  30.9139931 113.5437926  65.4796610  36.8958655 112.7107559  73.1844670
  37.6821744 112.2926982  72.8335087  37.1597359 113.6153651  73.3526318
  42.2967082 112.6482792  74.0877648  43.0292254 112.0782009  74.3215478
  41.5406438 112.2604392  74.5284154  33.9143202 115.0710033  71.2840990
  33.5501409 114.5440654  71.9953912  34.7710318 114.6808502  71.1107476
  39.8192502 106.3604366  78.5472257  39.4875827 107.2299777  78.3233472
  39.2238116 106.0440650  79.2266287  33.5548689 110.0999933  66.2802339
  33.7223091 110.9680170  66.6472810  33.3645858 110.2627215  65.3563628
  39.7121166 111.0799452  75.6265607  38.8038043 111.0114861  75.3324368
  39.6608761 111.5571397  76.4547432  33.5337910 112.5557591  67.2649006
  33.4137535 113.0014641  68.1034486  32.8390498 112.9042908  66.7062544
  33.7862031 112.4989098  83.5700504  33.0095365 113.0583018  83.5603369
  34.4252594 112.9845881  84.0915374  41.5782812 109.2815891  77.4043481
  40.9357192 109.5748424  76.7583275  41.0737741 109.1668811  78.2096677
  39.2322976 113.0279064  68.0929340  40.1440832 113.2606451  67.9177037
  38.7232623 113.6116108  67.5304418  37.5163743 117.4503692  81.7290632
  37.9247099 117.0086102  80.9845265  36.7941005 116.8756319  81.9824825
  33.8694813 112.3876298  79.1024189  34.7156009 112.8115712  79.2458838
  33.8093451 111.7309923  79.7962753  37.0194259 110.0480667  80.7605363
  36.7755191 110.8022727  80.2239639  37.2954189 110.4266014  81.5952610
  38.9732721 116.5919279  79.4382629  39.1849617 117.2351039  78.7617010
  38.9262470 115.7581596  78.9704559  36.5758950 109.2037100  76.3419201
  35.7143429 109.5018353  76.6335938  36.6021385 109.4207499  75.4100233
  32.3289406 113.8702443  69.5582572  33.0313449 114.3223486  70.0256498
  31.9970034 113.2286262  70.1862465  30.7769767 112.4614199  83.9333781
  30.1468428 113.1430480  84.1669178  30.6705855 112.3497281  82.9886919
  26.0714740 112.1285995  74.8599705  25.2813794 112.3843524  74.3839816
  26.5625987 112.9434333  74.9651746  28.0229485 112.4930575  71.8183182
  27.2260649 112.6049269  72.3366678  27.7955077 112.8317227  70.9524072
  48.1784542 115.8129983  73.9589957  47.4248251 115.2437381  73.8033962
  48.3132084 115.7792648  74.9060592  30.0550510 106.7634965  86.2959032
  29.6617456 106.2101164  86.9706676  30.8716650 107.0745544  86.6865550
  32.9718471 108.1792844  83.8879289  33.7128185 108.7799997  83.8083751
  33.2036394 107.4370482  83.3297331  28.1159809 113.3649212  82.1657518
  28.0013324 112.4634469  82.4664617  27.2604327 113.6112908  81.8142335
  36.9175634 104.2073947  78.1643570  36.5739903 105.0975589  78.0882681
  37.2854597 104.0175605  77.3013155  36.8825917 114.1982558  66.6716005
  36.3672540 114.9687163  66.9104393  36.6103225 113.5247694  67.2949067
  34.4673028 109.0432259  71.7301244  33.6114624 108.6539109  71.5506882
  34.8799980 109.1224220  70.8701029  35.9972174 106.5778602  76.1292804
  35.4936970 106.5408738  75.3160609  36.2902781 107.4871345  76.1889460
  32.2415060 106.6617332  75.1358985  33.1068057 106.4660141  74.7764875
  32.3092569 106.4327684  76.0628342  41.8560191 116.9514913  68.6069179
  41.0789634 116.6126072  68.1624341  42.5351672 116.9567536  67.9324144
  36.6712220 112.0709650  68.4975787  36.3662356 112.3855800  69.3485930
  37.6242662 112.1491070  68.5403120  40.0951498 116.4248894  75.2635787
  39.4375172 117.1148156  75.3515915  40.8991897 116.8145326  75.6069773
  29.8477379 108.8919540  72.5075352  30.4221131 108.6694721  71.7748545
  30.4348362 108.9608234  73.2603953  38.9056957 114.7793267  73.3139729
  39.4188838 115.4123259  73.8161438  39.5558181 114.1794462  72.9483089
  30.1746967 110.9224001  66.5271237  29.3384279 111.2598688  66.8480512
  30.0351736 110.7872981  65.5898374  32.1500047 105.7660789  71.2350421
  31.4964459 105.4509806  70.6107036  32.1080521 105.1436529  71.9610244
  33.2611252 116.0480084  63.1503714  32.3538314 115.8169337  63.3494863
  33.7582284 115.2517703  63.3377695  35.3837788 112.2542722  75.5598069
  34.4660349 112.4757669  75.4019757  35.7997931 112.3289033  74.7009776
  36.1672835 113.6534138  70.6900749  36.9144654 114.1655535  70.3807871
  36.4364425 113.3318191  71.5505143  34.4399485 116.1492679  67.6727704
  33.5310705 115.8651712  67.7700173  34.4694569 116.5691757  66.8131011
  38.6151672 110.6891254  72.6719539  37.8774429 110.1768641  73.0029781
  38.8678446 110.2491636  71.8602816  38.7163300 103.4667506  73.2661308
  39.0222177 102.6064870  72.9787223  39.4415905 104.0585127  73.0660302
  32.9884379 113.7621299  73.7737499  33.0432989 112.8095136  73.6979976
  32.1775582 113.9180739  74.2578797  30.9276739 112.3798359  71.5327878
  30.1144605 112.6792530  71.9393070  31.4235734 111.9854048  72.2502360
  36.5250951 112.8440184  80.3642772  36.8800339 113.0711657  81.2237238
  37.1723082 113.1758560  79.7420027  42.2548688 115.9658620  71.0692101
  42.1166587 116.1560216  70.1413290  41.8984907 116.7278002  71.5260152
  30.4190814 109.9516715  77.1489113  31.0590193 109.8105474  76.4512076
  29.5868345 109.6651228  76.7727715  42.2818068 118.0335147  76.0803372
  42.7154574 117.9410436  76.9286426  42.9949648 118.0092647  75.4423388
  27.5033882 113.3962227  69.3383858  26.5731470 113.3346682  69.5553820
  27.5991354 112.8738180  68.5420499  27.4219431 109.9217040  71.9262100
  27.6826248 110.8362373  71.8171260  28.2436603 109.4541482  72.0758712
  28.8944356 111.3354797  79.0960924  29.5667409 111.1272159  78.4473573
  28.0674142 111.1376883  78.6566156  43.1433617 118.0758847  78.6136258
  43.3369507 118.9804658  78.8595533  43.0434235 117.6166266  79.4474843
  34.7969928 107.9616738  81.1126585  34.1497843 108.6606687  81.0191061
  35.5670943 108.3952882  81.4802833  34.9734062 115.7997503  79.1723405
  35.9026122 115.9508662  78.9992372  34.5525092 115.8881523  78.3172051
  29.2971853 114.6097400  79.8563361  29.1591651 113.8777639  80.4574900
  30.2076777 114.5206300  79.5747549  38.2586801 116.5485804  64.6047840
  37.6415971 115.8232632  64.5080893  37.7903289 117.3095164  64.2614914
  31.9254154 114.3217359  79.3447041  32.6353772 113.6810551  79.3033659
  31.8823462 114.5730254  80.2673222  30.6383088 111.3082577  81.1642680
  30.1020445 110.8573316  81.8164277  30.0499796 111.4428486  80.4213145
  30.0485347 110.7671228  63.7269144  29.1714813 110.6460029  63.3631391
  30.5243100 109.9757307  63.4748033  26.3722209 110.4438585  78.2495675
  26.2880398 109.8364254  77.5146085  25.5504915 110.9347603  78.2505171
  36.5445923 108.9292148  73.6165870  37.0414622 108.1762111  73.2966940
  35.7732904 108.9656465  73.0509079  44.3975680 114.6332514  75.2584162
  44.3865557 115.5157229  74.8878095  43.5293060 114.2804065  75.0638699
  33.1280892 111.0709531  73.3437555  32.7578679 110.5180572  74.0318460
  33.6239984 110.4667665  72.7912555  41.0148255 113.5281155  71.7254328
  41.4808707 114.3609146  71.6514630  41.4655755 113.0626136  72.4299586
  38.9864918 105.8961742  75.7645229  38.0727998 106.1265969  75.9327436
  39.4158019 105.9800186  76.6159261  38.7571376 114.0851634  78.2645123
  38.1042826 114.3327541  77.6097576  39.1351756 113.2715772  77.9307600
  34.8058949 114.8271445  84.7511160  34.1299586 114.7265574  85.4213535
  35.6286583 114.6710659  85.2147157  28.5246225 108.4813522  79.5890661
  28.5887552 109.3428353  79.1768058  28.4613346 107.8687524  78.8563019
  27.9998498 110.5536655  83.2363695  28.6270537 110.1713732  83.8501219
  27.1426417 110.3350857  83.6019387  24.7764041 112.3613084  69.1682050
  25.0717482 111.4523762  69.1149103  23.8752076 112.3400823  68.8463052
  28.3058288 110.4369080  75.1509598  27.5844873 111.0505048  75.0117072
  29.0951543 110.9726845  75.0726244  31.1084601 107.7723507  81.4250250
  31.6319003 108.0185803  82.1876559  30.8896934 108.6043542  81.0053387
  26.5051882 110.0427181  69.2921375  26.1764588 109.1624560  69.1096481
  26.8591253 109.9874850  70.1797764  29.6193705 110.3300151  69.6596853
  29.9589778 110.8586072  68.9375461  30.0665826 110.6680557  70.4355419
  32.3137146 108.7137202  79.1099921  31.9733967 107.9145015  79.5120601
  31.6076152 109.0138913  78.5376754  32.9653618 105.7986514  77.5627244
  33.7879687 105.3246992  77.4406134  33.2091682 106.5776998  78.0625930
  31.6061852 108.8274773  67.8590145  32.3270215 109.2056026  67.3553862
  30.9827157 109.5463650  67.9625123  35.7492975 109.5319922  68.7948478
  35.9656590 110.4144560  68.4937306  35.2687043 109.1406135  68.0654120
  30.4892197 112.4905635  75.3719222  30.3436777 112.8045938  76.2643504
  30.0117400 113.1090535  74.8190121  32.3488580 109.4808183  75.4200112
  32.3350148 108.5849276  75.0832410  33.0661008 109.4878847  76.0538398
  34.2014710 109.9145523  77.4653239  33.9432488 110.8362594  77.4637570
  33.6699751 109.5175958  78.1553703  31.7525476 108.3622563  70.6887682
  31.8741387 107.4339209  70.8878569  31.4627518 108.3761249  69.7765997
  34.6216666 106.0477474  73.8254402  34.6438363 106.1116807  72.8706381
  35.0384725 105.2081982  74.0194908  45.0000290 115.7832733  71.8633624
  45.4431436 115.0340058  71.4652748  44.1226801 115.7742870  71.4807356
  31.2366555 109.8754561  84.8977615  31.2854711 110.7516683  84.5155384
  31.7789069 109.3331954  84.3249258  41.8419276 117.2688150  81.4911480
  41.8917281 117.1038158  82.4327003  41.7333199 116.4015409  81.1009361
  39.1323038 113.2519078  82.8070787  40.0332901 113.1125543  82.5154785
  39.2071013 113.4173533  83.7468964  33.4665844 110.6285933  81.6523973
  32.5969153 110.9219499  81.3806562  33.7025324 111.2126378  82.3731237
  44.5433155 117.2537972  74.2556072  45.3780046 117.6927776  74.4193632
  44.6792284 116.7776625  73.4364318  41.5924661 114.8117706  80.2033560
  42.0678783 115.0045353  79.3952411  40.6690226 114.8676892  79.9576943
  36.1704877 106.8465550  79.1689394  36.6886821 107.5826577  78.8435882
  35.8160010 107.1529543  80.0036153  27.7503815 111.7070231  67.2850799
  27.0573060 111.7814586  66.6290835  27.5055567 110.9430575  67.8072316
  36.4217472 103.2665832  74.6890290  36.7019225 102.5989022  75.3150717
  37.2068078 103.4594928  74.1764954  40.2926330 111.6883466  78.4361865
  41.2443753 111.7881564  78.4574089  40.1229780 110.8961735  78.9459950
  38.3140709 108.7739050  78.6221266  37.7190641 109.0544062  77.9267755
  38.0290406 109.2632951  79.3938007  42.7714408 114.9089586  77.5504165
  42.7390728 113.9705587  77.7363849  43.3815031 114.9873623  76.8169990
  34.6097739 113.7785639  63.5931369  35.5556843 113.6491847  63.6619787
  34.2311984 113.0400301  64.0700797  42.9208896 111.7000630  77.5962448
  42.4047945 110.9159086  77.4092377  43.8048845 111.3719346  77.7608968
  40.5819623 105.4441645  73.5558261  40.3844444 105.1356733  74.4401593
  41.1919329 106.1703284  73.6856191  48.5890958 115.9705593  76.6910202
  49.3194346 115.7090881  77.2517905  47.9797903 115.2334315  76.7312270
  46.6706255 114.1113456  77.2884653  45.9439418 113.9769420  76.6801145
  46.2553542 114.4190284  78.0941371  32.7940656 111.7035615  63.5286254
  31.8872111 111.4068728  63.6048968  33.0716637 111.4065434  62.6620540
  34.4102721 106.2472505  69.6830496  33.6003450 105.9019590  70.0585742
  35.0987138 105.9380049  70.2718107  36.3393270 105.3250552  71.3054792
  36.8924308 105.7446005  71.9644815  36.5763356 104.3986300  71.3477748
  32.3626369 111.3137626  87.0857556  32.2623096 112.2631983  87.0169647
  32.1447911 110.9855865  86.2133626  31.5639440 108.5622551  63.6698233
  32.4258604 108.8877449  63.9294051  31.7489784 107.7754047  63.1571299
  39.7172077 107.4351077  70.8133456  39.1370746 108.0935881  70.4311509
  39.4508009 106.6128422  70.4020874  38.1675643 106.8356135  73.0154777
  38.6675422 106.9472669  72.2069096  38.8111251 106.5317188  73.6555585
  32.2257639 114.7434764  85.9022618  31.7424721 115.5435125  86.1086507
  32.3118578 114.7542709  84.9490062  38.4996955 109.5951168  69.8689805
  37.6122810 109.8800818  69.6509999  38.9150944 109.4344931  69.0217082
  41.8511491 109.6197689  73.5844144  42.6271881 110.1094141  73.8568761
  41.1259625 110.0455743  74.0416013  44.2884050 110.3325308  74.6418085
  44.8828540 110.0921044  73.9311393  44.3610633 109.6132438  75.2691621
  38.4737979 115.1105703  70.0840095  38.4173180 115.5674255  69.2447727
  39.0266321 114.3496388  69.9062938  42.2842784 110.8995435  70.9090214
  42.0279719 110.4992071  71.7398422  41.6595653 111.6139229  70.7840354
  46.5955122 113.6391509  73.4161506  46.0354680 113.7084698  74.1893068
  45.9898626 113.4632493  72.6961002  39.2072758 116.3010485  67.3792624
  39.1521562 116.1354756  66.4381068  38.5818813 117.0086518  67.5354814
  23.9965273 111.5378549  81.2054046  24.6424136 111.0277503  81.6941271
  23.7882424 112.2747231  81.7797472  32.5168883 105.8018594  66.9577942
  32.5047553 106.7460434  67.1146213  33.4092305 105.6188739  66.6637404
  36.3321003 102.3961370  71.2123879  35.5653399 101.8419857  71.3580562
  36.7431708 102.4683239  72.0738031  28.3362764 108.6846166  85.3029060
  29.1994225 108.3282971  85.5132385  27.7628175 108.3460061  85.9904465
  47.7569389 119.5365865  78.1643570  47.4133658 120.4267507  78.0882681
  48.1248351 119.3467523  77.3013155  49.5557054 118.7959424  73.2661308
  49.8615931 117.9356787  72.9787223  50.2809659 119.3877044  73.0660302
  49.8258672 121.2253659  75.7645229  48.9121752 121.4557886  75.9327436
  50.2551774 121.3092104  76.6159261  47.2611226 118.5957750  74.6890290
  47.5412980 117.9280939  75.3150717  48.0461833 118.7886846  74.1764954
  51.4213378 120.7733563  73.5558261  51.2238199 120.4648651  74.4401593
  52.0313083 121.4995202  73.6856191  47.1787024 120.6542470  71.3054792
  47.7318063 121.0737923  71.9644815  47.4157111 119.7278218  71.3477748
  47.1714757 117.7253288  71.2123879  46.4047153 117.1711775  71.3580562
  47.5825462 117.7975157  72.0738031   4.8209526  31.5024435  60.6835264
   4.0673234  30.9331833  60.5279269   4.9557067  31.4687099  61.6305899
   1.6425274  31.4727185  58.5878931   2.0856420  30.7234510  58.1898054
   0.7651784  31.4637321  58.2052663   1.1858138  32.9432423  60.9801379
   2.0205030  33.3822227  61.1438939   1.3217267  32.4671077  60.1609624
   5.2315941  31.6600045  63.4155508   5.9619329  31.3985333  63.9763212
   4.6222886  30.9228767  63.4557576   3.3131238  29.8007907  64.0129960
   2.5864402  29.6663872  63.4046451   2.8978525  30.1084736  64.8186678
   0.9309033  26.0219760  61.3663391   1.5253524  25.7815496  60.6556699
   1.0035617  25.3026890  61.9936927   3.2380106  29.3285960  60.1406812
   2.6779664  29.3979150  60.9138374   2.6323609  29.1526945  59.4206309
   4.8236124  46.0042474  62.8336768   5.4614534  45.8849222  62.1300108
   4.7056967  46.9523318  62.8924720   1.6325830  45.9569903  62.7698293
   1.2944342  45.8410967  61.8818828   2.5015599  45.5561068  62.7499299
   2.1145613  47.1104754  68.7284498   2.1034254  46.7157553  67.8565002
   2.2766253  46.3770827  69.3218270   3.0712205  51.4776347  54.0709649
   2.4200185  52.0630427  53.6843662   3.8656568  52.0082542  54.1304686
   4.3777393  43.7293928  59.9089976   5.1640482  43.3113351  59.5580393
   4.6416097  44.6340020  60.0771625   4.5487470  49.1666779  54.6078633
   3.9133303  49.2401405  55.3199538   4.2184876  49.7560377  53.9297712
   9.7785820  43.6669161  60.8122955  10.5110992  43.0968378  61.0460784
   9.0225175  43.2790762  61.2529460   1.3961939  46.0896403  58.0086297
   1.0320147  45.5627024  58.7199219   2.2529055  45.6994872  57.8352783
   7.3011240  37.3790736  65.2717563   6.9694565  38.2486147  65.0478778
   6.7056853  37.0627020  65.9511594   1.0367426  41.1186303  53.0047646
   1.2041829  41.9866539  53.3718117   0.8464595  41.2813584  52.0808935
   3.7942760  49.5803282  64.6713476   3.4943483  50.4828320  64.5629283
   3.4493819  49.3135465  65.5234629   7.1939903  42.0985822  62.3510913
   6.2856781  42.0301230  62.0569674   7.1427499  42.5757767  63.1792739
   1.2680769  43.5175467  70.2945811   0.4914103  44.0769387  70.2848675
   1.9071332  44.0032250  70.8160681   9.0601550  40.3002260  64.1288787
   8.4175930  40.5934793  63.4828582   8.5556478  40.1855180  64.9341984
   6.7141713  44.0465433  54.8174647   7.6259570  44.2792820  54.6422344
   6.2051361  44.6302478  54.2549725   4.9982481  48.4690061  68.4535939
   5.4065837  48.0272472  67.7090571   4.2759743  47.8942689  68.7070132
   1.3513551  43.4062668  65.8269496   2.1974746  43.8302081  65.9704145
   1.2912189  42.7496292  66.5208059   5.3211296  49.0291252  62.2088228
   4.6920158  49.1936966  61.5064296   4.9336958  49.4432861  62.9799192
   9.2000528  49.9645690  59.5632592   8.5151566  50.3444591  59.0129625
   9.2844377  50.5741016  60.2964539   4.5012996  41.0667036  67.4850670
   4.2573928  41.8209097  66.9484945   4.7772927  41.4452384  68.3197917
   6.4551459  47.6105649  66.1627935   6.6668355  48.2537409  65.4862316
   6.4081208  46.7767965  65.6949865   4.0577688  40.2223469  63.0664507
   3.1962167  40.5204723  63.3581245   4.0840123  40.4393868  62.1345540
   0.8739258  48.7665660  59.4738313   1.3377603  49.0453363  58.6842936
   0.6096056  47.8649104  59.2911404   7.5697287  50.4877604  64.3350293
   8.3914731  50.0857791  64.0532974   7.5659690  50.3845838  65.2866408
   1.3353891  50.0361647  66.4911003   1.3998323  50.4982055  67.3269175
   0.6264815  49.4059012  66.6193313  15.6603280  46.8316353  60.6835264
  14.9066989  46.2623751  60.5279269  15.7950821  46.7979017  61.6305899
   1.0501908  51.7029755  56.3589983   0.9147583  52.5481291  56.7874831
   1.5911721  51.9049033  55.5955917   2.6770385  52.3253321  70.4890326
   2.2334239  51.5389700  70.1711230   3.3387598  52.5132472  69.8234216
   4.7751623  52.6056121  68.5171727   4.7570098  53.4265002  68.0251996
   5.6971543  52.4810197  68.7421868   1.2324677  50.1200251  69.3595235
   1.7653014  49.3588539  69.1294543   0.7038758  49.8273903  70.1019390
   4.3994372  35.2260317  64.8888877   4.0558641  36.1161958  64.8127987
   4.7673334  35.0361974  64.0258462   4.3644655  45.2168928  53.3961312
   3.8491278  45.9873532  53.6349699   4.0921963  44.5434064  54.0194373
   1.9491766  40.0618629  58.4546550   1.0933362  39.6725479  58.2752189
   2.3618717  40.1410589  57.5946336   3.4790912  37.5964972  62.8538110
   2.9755708  37.5595107  62.0405915   3.7721519  38.5057715  62.9134767
   9.3378929  47.9701283  55.3314485   8.5608372  47.6312442  54.8869648
  10.0170410  47.9753906  54.6569451   4.1530958  43.0896020  55.2221093
   3.8481093  43.4042169  56.0731236   5.1061400  43.1677440  55.2648426
   2.5977390  49.2486243  56.8714047   2.0698751  48.5139003  56.5587285
   2.0964892  50.0260920  56.6254016   7.5770236  47.4435264  61.9881093
   6.9193910  48.1334525  62.0761222   8.3810635  47.8331696  62.3315080
   6.3875694  45.7979636  60.0385035   6.9007576  46.4309628  60.5406745
   7.0376918  45.1980832  59.6728395   3.6498069  55.7763961  52.7945706
   2.9759767  56.0795657  53.4030664   4.0363891  56.5793041  52.4451163
   2.8656525  43.2729092  62.2843376   1.9479087  43.4944039  62.1265064
   3.2816669  43.3475402  61.4255083   3.6491573  44.6720508  57.4146056
   4.3963392  45.1841905  57.1053178   3.9183163  44.3504560  58.2750450
   1.9218223  47.1679048  54.3973010   1.0129442  46.8838081  54.4945480
   1.9513307  47.5878127  53.5376317   7.1537491  50.7785638  58.1664178
   6.6999818  49.9376548  58.2229368   6.5231457  51.4147036  58.5038958
   6.0970410  41.7077624  59.3964845   5.3593167  41.1955010  59.7275088
   6.3497184  41.2678006  58.5848122   5.5970430  52.6162135  59.1013996
   5.8893404  53.1767192  58.3826362   6.1069050  52.9090696  59.8567155
   6.1982038  34.4853876  59.9906615   6.5040914  33.6251239  59.7032530
   6.9234642  35.0771496  59.7905608   1.6194311  48.7087792  51.7361089
   1.1813741  47.9923651  51.2766726   2.3604752  48.9363907  51.1746180
   0.5604055  53.3942486  60.1907449   0.5180234  53.6203332  59.2615981
   1.4766754  53.1605860  60.3393250   4.0069689  43.8626553  67.0888078
   4.3619077  44.0898026  67.9482544   4.6541820  44.1944930  66.4665334
   9.7367426  46.9844989  57.7937407   9.5985324  47.1746585  56.8658597
   9.3803645  47.7464372  58.2505459   9.7636805  49.0521516  62.8048679
  10.1973312  48.9596805  63.6531733  10.4768386  49.0279017  62.1668695
   3.4964700  52.6523610  64.3381780   3.5501723  53.2214547  65.1059495
   2.6279482  52.8225495  63.9735817  10.6252355  49.0945217  65.3381564
  10.8188245  49.9991027  65.5840839  10.5252973  48.6352636  66.1720149
   2.2788666  38.9803107  67.8371892   1.6316581  39.6793057  67.7436368
   3.0489681  39.4139251  68.2048140   5.6867464  49.2451960  70.9122445
   5.5352970  49.0162511  69.9952529   5.6772143  50.2022561  70.9253790
   2.4552800  46.8183872  65.8968711   3.3844860  46.9695032  65.7237679
   2.0343830  46.9067893  65.0417358   1.8489284  55.9443633  55.0092786
   2.0241040  55.4731676  55.8238408   1.1622072  56.5709399  55.2374046
   2.8046347  50.2216139  61.0556087   2.4696180  50.1816909  61.9513737
   2.3050293  49.5560855  60.5826497   5.7405539  47.5672174  51.3293146
   5.1234709  46.8419002  51.2326199   5.2722027  48.3281534  50.9860221
   7.3959670  52.2771082  68.9898927   7.3372216  51.5930302  68.3229510
   7.7979189  53.0190072  68.5379553   7.3977078  50.2410666  67.2212906
   6.5103856  49.9036588  67.3439305   7.9675629  49.5093697  67.4581672
   0.9278231  54.9012118  64.1874150   0.8548402  55.7067090  64.6993454
   0.4855624  55.1004084  63.3622171   4.0264661  39.9478518  60.3411177
   4.5233360  39.1948480  60.0212247   3.2551642  39.9842835  59.7754386
  11.8794418  45.6518883  61.9829468  11.8684294  46.5343599  61.6123401
  11.0111798  45.2990434  61.7884005   3.3876914  54.7998952  66.3432308
   4.1004887  55.4346417  66.2708210   2.8966943  54.8962818  65.5272310
   5.1094441  48.7050205  57.9149600   4.1750720  48.8251668  57.7454304
   5.2871110  47.8022672  57.6509610   8.4966993  44.5467524  58.4499634
   8.9627445  45.3795516  58.3759937   8.9474493  44.0812506  59.1544893
   6.5643224  50.8911346  55.4485786   6.8403068  50.7767940  56.3579660
   5.6947723  50.4928830  55.4097959   6.4683655  36.9148111  62.4890536
   5.5546735  37.1452338  62.6572742   6.8976757  36.9986555  63.3404568
   6.2390114  45.1038003  64.9890430   5.5861564  45.3513911  64.3342882
   6.6170494  44.2902141  64.6552907   3.1997288  55.1397696  59.0918600
   3.3819682  54.3219352  59.5546352   4.0230274  55.3565389  58.6543490
   3.5339453  54.0665882  56.3533648   4.0627220  53.5558336  55.7403810
   3.7967673  53.7508412  57.2179181   2.2877687  45.8457814  71.4756467
   1.6118324  45.7451944  72.1458842   3.1105321  45.6897028  71.9392464
   1.0300470  57.1524742  65.7114083   1.5818778  57.3156363  66.4763168
   1.3706663  57.7429180  65.0394107   5.8811344  51.9785999  71.5662737
   6.4251248  52.5915958  71.0717692   5.2998189  52.5365578  72.0829750
   4.1668857  55.1006717  62.6977765   4.0419997  54.2996457  62.1888710
   4.8247948  55.5952911  62.2091735   6.2303766  52.9015737  64.3257315
   5.2834101  52.7821089  64.2535642   6.5786539  52.0138235  64.4083576
   3.2350199  52.6968454  60.5261667   3.0875161  51.7685161  60.7069237
   4.0603692  52.7188544  60.0418742   6.8384321  53.5197012  61.6126540
   7.7630868  53.3139874  61.4750991   6.6699624  53.2713414  62.5215881
   3.2311713  40.5506291  55.5193784   3.4475328  41.4330929  55.2182612
   2.7505780  40.1592505  54.7899426   1.6833448  40.9331893  64.1898546
   1.4251226  41.8548963  64.1882876   1.1518489  40.5362327  64.8799010
   6.6279637  54.0382680  56.9688631   6.8016514  53.4729102  56.2162484
   7.1208528  54.8383575  56.7868121   2.1035404  37.0663843  60.5499708
   2.1257101  37.1303176  59.5951688   2.5203463  36.2268352  60.7440215
  12.4819028  46.8019103  58.5878931  12.9250174  46.0526428  58.1898054
  11.6045538  46.7929239  58.2052663   7.6154809  53.3549444  54.0685530
   8.3105714  53.9756137  54.2872844   7.9577960  52.5044795  54.3437907
   9.5146233  50.8049150  55.5972860  10.0397557  51.1436423  54.8722180
   9.4268585  49.8696165  55.4135995   1.1766281  54.7183223  67.7262737
   1.4853408  54.4732370  68.5985437   1.9741763  54.9229862  67.2381607
   1.1986893  56.8721133  59.9568114   0.7591884  56.3797512  60.6500970
   1.9495010  56.3294101  59.7160189   9.2040139  51.4382053  70.9024058
   8.4135682  51.4206192  70.3628558   8.9673493  51.9770347  71.6573095
   9.3238014  48.2874520  68.2156787   9.3736019  48.1224527  69.1572310
   9.2151937  47.4201779  67.8254668   6.6141776  44.2705448  69.5316094
   7.5151639  44.1311913  69.2400091   6.6889751  44.4359903  70.4714271
  10.8256210  50.7071461  68.4598808  10.5341019  51.0701442  69.2962269
  10.2128342  49.9938470  68.2812140  12.0251893  48.2724341  60.9801379
  12.8598784  48.7114145  61.1438939  12.1611022  47.7962994  60.1609624
   9.0743399  45.8304076  66.9278866   9.5497520  46.0231722  66.1197718
   8.1508964  45.8863262  66.6822250   3.6523615  37.8651919  65.8934700
   4.1705559  38.6012946  65.5681189   3.2978748  38.1715913  66.7281459
   3.9036209  34.2852202  61.4135597   4.1837963  33.6175391  62.0396023
   4.6886816  34.4781298  60.9010261   1.7069678  53.4611196  52.9760623
   1.1343645  54.0801383  52.5231095   2.2802472  54.0110558  53.5100545
   7.7745068  42.7069836  65.1607172   8.7262491  42.8067934  65.1819396
   7.6048518  41.9148105  65.6705256   5.7959447  39.7925419  65.3466573
   5.2009379  40.0730432  64.6513062   5.5109144  40.2819320  66.1183314
   4.9266938  53.7448346  54.1069205   5.8597611  53.6793908  54.3102081
   4.8390150  54.5804613  53.6483738   7.5554954  53.0614216  51.0673153
   7.4768586  52.7274080  51.9608911   8.3764621  53.5535984  51.0664625
  10.2533145  45.9275956  64.2749472  10.2209466  44.9891956  64.4609155
  10.8633769  46.0059992  63.5415296   2.0916476  44.7972009  50.3176676
   3.0375581  44.6678217  50.3865094   1.7130721  44.0586671  50.7946104
  10.4027634  42.7186999  64.3207755   9.8866683  41.9345456  64.1337684
  11.2867582  42.3905716  64.4854274   8.0638361  36.4628015  60.2803567
   7.8663182  36.1543103  61.1646899   8.6738066  37.1889654  60.4101497
  16.0709695  46.9891963  63.4155508  16.8013084  46.7277251  63.9763212
  15.4616641  46.2520684  63.4557576  14.1524992  45.1299825  64.0129960
  13.4258156  44.9955790  63.4046451  13.7372279  45.4376654  64.8186678
   1.9755169  48.8489755  71.7777333   2.8958178  49.0268354  71.9717379
   1.9404752  47.9045800  71.6257032   1.8921459  37.2658875  56.4075802
   1.0822188  36.9205960  56.7831048   2.5805876  36.9566418  56.9963414
   3.8212008  36.3436922  58.0300099   4.3743046  36.7632375  58.6890122
   4.0582094  35.4172670  58.0723055   7.1990815  38.4537447  57.5378763
   6.6189484  39.1122251  57.1556815   6.9326747  37.6314791  57.1266181
   5.6494381  37.8542504  59.7400083   6.1494159  37.9659039  58.9314402
   6.2929989  37.5503557  60.3800892   5.9815693  40.6137537  56.5935111
   5.0941548  40.8987188  56.3755306   6.3969682  40.4531300  55.7462388
   9.3330229  40.6384058  60.3089451  10.1090619  41.1280511  60.5814067
   8.6078363  41.0642112  60.7661320  11.7702787  41.3511677  61.3663391
  12.3647278  41.1107413  60.6556699  11.8429371  40.6318808  61.9936927
   5.1258906  50.3782212  50.6883131   5.8294756  50.5832214  51.3040787
   4.4021555  50.9458974  50.9532215   5.9556716  46.1292073  56.8085401
   5.8991918  46.5860624  55.9693034   6.5085059  45.3682758  56.6308244
   9.7661522  41.9181805  57.6335521   9.5098457  41.5178441  58.4643729
   9.1414390  42.6325599  57.5085660  14.0773860  44.6577878  60.1406812
  13.5173418  44.7271067  60.9138374  13.4717364  44.4818863  59.4206309
   7.0345603  50.8164741  52.7381591   7.8691207  50.3845939  52.5559066
   6.8729946  50.6446755  53.6658486   6.6891496  47.3196854  54.1037931
   6.6340299  47.1541126  53.1626375   6.0637551  48.0272887  54.2600120
   4.0037403  49.6245766  73.4291493   4.8728562  49.7986418  73.0678128
   3.5244154  50.4440183  73.3067223   3.8139741  33.4147740  57.9369186
   3.0472136  32.8606227  58.0825868   4.2250446  33.4869609  58.7983337
  15.6629879  61.3334392  62.8336768  16.3008289  61.2141139  62.1300108
  15.5450721  62.2815236  62.8924720  12.4719585  61.2861820  62.7698293
  12.1338096  61.1702885  61.8818828  13.3409353  60.8852985  62.7499299
   8.3306401  63.1397297  58.7595184   7.7671266  63.0487234  57.9911472
   8.2158796  62.3197201  59.2397676  12.9539368  62.4396672  68.7284498
  12.9428009  62.0449470  67.8565002  13.1160007  61.7062745  69.3218270
   5.8770832  64.6348488  61.5979404   6.6692124  64.2939313  61.1825704
   6.1167483  64.7443463  62.5181558  13.9105959  66.8068264  54.0709649
  13.2593939  67.3922345  53.6843662  14.7050322  67.3374459  54.1304686
   7.8361586  63.8957401  54.4696783   8.6092462  63.3486389  54.3309659
   8.1886985  64.7601651  54.6811244   9.6746629  65.2233784  67.6763682
   9.3836495  66.1279415  67.5610349  10.3103613  65.2650311  68.3907752
  10.6002836  62.6010632  64.2665042  11.1966408  62.3766655  63.5522005
  10.6577807  61.8595378  64.8690490  10.1727864  60.0550068  52.1015233
  10.4253385  59.5331589  51.3398696   9.2352423  59.8916213  52.2041917
  15.2171147  59.0585846  59.9089976  16.0034236  58.6405269  59.5580393
  15.4809851  59.9631938  60.0771625  15.3881224  64.4958696  54.6078633
  14.7527057  64.5693323  55.3199538  15.0578631  65.0852295  53.9297712
  20.6179574  58.9961079  60.8122955  21.3504746  58.4260296  61.0460784
  19.8618930  58.6082680  61.2529460   9.8924153  61.9578174  54.3039608
   9.7760411  61.2823077  54.9720692  10.0026413  61.4710547  53.4871761
  12.2355694  61.4188321  58.0086297  11.8713901  60.8918942  58.7199219
  13.0922810  61.0286790  57.8352783  18.1404995  52.7082653  65.2717563
  17.8088319  53.5778064  65.0478778  17.5450608  52.3918937  65.9511594
  11.8761181  56.4478220  53.0047646  12.0435583  57.3158457  53.3718117
  11.6858350  56.6105502  52.0808935  14.6336514  64.9095199  64.6713476
  14.3337237  65.8120238  64.5629283  14.2887574  64.6427382  65.5234629
   8.0848996  61.3608996  60.7050180   7.1599492  61.2285210  60.9127872
   8.3333409  62.1403215  61.2020123  18.0333658  57.4277739  62.3510913
  17.1250535  57.3593148  62.0569674  17.9821254  57.9049684  63.1792739
  11.8550402  58.9035878  53.9894312  11.7350027  59.3492929  54.8279793
  11.1602990  59.2521196  53.4307851   5.4457807  61.0042270  61.5393970
   5.5750188  61.2576749  62.4533381   4.7655258  61.5969978  61.2198625
   9.6157294  71.6739520  57.6384444   9.5381324  72.6247345  57.7172924
   9.0118937  71.3285392  58.2959370  12.1074524  58.8467385  70.2945811
  11.3307858  59.4061305  70.2848675  12.7465087  59.3324168  70.8160681
  19.8995304  55.6294178  64.1288787  19.2569685  55.9226711  63.4828582
  19.3950233  55.5147098  64.9341984  17.5535468  59.3757351  54.8174647
  18.4653324  59.6084738  54.6422344  17.0445115  59.9594395  54.2549725
  10.3620896  61.6552838  69.8563778  11.1035580  62.1937882  69.5798601
   9.6557881  62.2819127  70.0135329  15.8376236  63.7981979  68.4535939
  16.2459592  63.3564389  67.7090571  15.1153497  63.2234606  68.7070132
  12.1907306  58.7354586  65.8269496  13.0368501  59.1593999  65.9704145
  12.1305943  58.0788210  66.5208059  16.1605050  64.3583169  62.2088228
  15.5313913  64.5228884  61.5064296  15.7730712  64.7724779  62.9799192
  20.0394282  65.2937607  59.5632592  19.3545320  65.6736509  59.0129625
  20.1238131  65.9032934  60.2964539  15.3406751  56.3958954  67.4850670
  15.0967683  57.1501015  66.9484945  15.6166681  56.7744302  68.3197917
  17.2945214  62.9397566  66.1627935  17.5062109  63.5829326  65.4862316
  17.2474962  62.1059883  65.6949865  14.8971443  55.5515387  63.0664507
  14.0355922  55.8496641  63.3581245  14.9233877  55.7685786  62.1345540
  11.7133012  64.0957578  59.4738313  12.1771358  64.3745281  58.6842936
  11.4489810  63.1941022  59.2911404   8.6057093  63.6429059  62.4118076
   9.1758450  64.0716327  61.7735561   9.1965205  63.3611644  63.1102262
  10.6501898  60.2180730  56.2827878  11.3525942  60.6701774  56.7501805
  10.3182527  59.5764549  56.9107771   9.0982260  58.8092487  70.6579088
   8.4680920  59.4908767  70.8914484   8.9918348  58.6975568  69.7132226
   4.3927232  58.4764283  61.5845012   3.6026286  58.7321811  61.1085122
   4.8838480  59.2912620  61.6897052  18.4091042  65.8169522  64.3350293
  19.2308485  65.4149709  64.0532974  18.4053445  65.7137756  65.2866408
   6.3441978  58.8408862  58.5428488   5.5473141  58.9527556  59.0611984
   6.1167570  59.1795514  57.6769379  12.1747645  65.3653565  66.4911003
  12.2392078  65.8273972  67.3269175  11.4658569  64.7350930  66.6193313
   2.6764935  58.7294773  64.0160003   2.9272974  59.6141783  64.2817579
   3.2124484  58.5499375  63.2435094  26.4997035  62.1608270  60.6835264
  25.7460743  61.5915668  60.5279269  26.6344576  62.1270935  61.6305899
  11.8895663  67.0321673  56.3589983  11.7541338  67.8773208  56.7874831
  12.4305475  67.2340950  55.5955917   8.3763002  53.1113252  73.0204339
   7.9829948  52.5579451  73.6951983   9.1929143  53.4223831  73.4110856
   5.3425060  64.5497111  56.9317909   5.8549581  65.3440361  57.0823473
   5.9947773  63.8523401  56.8651510   7.1519945  67.6662867  59.0140662
   7.3286573  68.5880832  58.8261646   7.9476778  67.3521286  59.4435041
  11.2930963  54.5271131  70.6124595  12.0340677  55.1278285  70.5329058
  11.5248886  53.7848769  70.0542638   6.4372301  59.7127499  68.8902825
   6.3225817  58.8112756  69.1909924   5.5816819  59.9591196  68.5387641
  13.5164139  67.6545239  70.4890326  13.0727993  66.8681618  70.1711230
  14.1781353  67.8424390  69.8234216   8.2751260  69.1841041  65.0151004
   8.8258685  69.0558104  64.2427998   7.4362736  69.4835930  64.6645897
  15.6145377  67.9348039  68.5171727  15.5963853  68.7556920  68.0251996
  16.5365297  67.8102114  68.7421868  12.0718431  65.4492168  69.3595235
  12.6046768  64.6880457  69.1294543  11.5432513  65.1565820  70.1019390
  15.2388126  50.5552234  64.8888877  14.8952396  51.4453876  64.8127987
  15.6067089  50.3653892  64.0258462   3.3073977  62.8785765  57.7077479
   4.1449199  63.2882773  57.4911187   3.4852245  61.9385207  57.6777673
  15.2038409  60.5460846  53.3961312  14.6885033  61.3165450  53.6349699
  14.9315718  59.8725982  54.0194373  12.7885520  55.3910546  58.4546550
  11.9327116  55.0017397  58.2752189  13.2012472  55.4702507  57.5946336
  14.3184667  52.9256890  62.8538110  13.8149462  52.8887025  62.0405915
  14.6115274  53.8349632  62.9134767  10.5627553  53.0095619  61.8604292
  11.4280549  52.8138428  61.5010181  10.6305062  52.7805971  62.7873649
  20.1772683  63.2993200  55.3314485  19.4002126  62.9604360  54.8869648
  20.8564164  63.3045823  54.6569451  14.9924712  58.4187938  55.2221093
  14.6874848  58.7334087  56.0731236  15.9455154  58.4969358  55.2648426
  13.4371144  64.5778161  56.8714047  12.9092506  63.8430921  56.5587285
  12.9358647  65.3552837  56.6254016  18.4163990  62.7727181  61.9881093
  17.7587665  63.4626443  62.0761222  19.2204389  63.1623613  62.3315080
   8.1689872  55.2397827  59.2320659   8.7433624  55.0173009  58.4993852
   8.7560854  55.3086522  59.9849260  17.2269449  61.1271554  60.0385035
  17.7401331  61.7601546  60.5406745  17.8770673  60.5272750  59.6728395
   8.4959459  57.2702288  53.2516544   7.6596771  57.6076975  53.5725819
   8.3564228  57.1351268  52.3143681  10.4712539  52.1139076  57.9595728
   9.8176952  51.7988093  57.3352343  10.4293014  51.4914817  58.6855551
  11.5823744  62.3958371  49.8749020  10.6750806  62.1647625  50.0740169
  12.0794776  61.5995990  50.0623002  14.4891823  71.1055878  52.7945706
  13.8153522  71.4087575  53.4030664  14.8757645  71.9084959  52.4451163
  13.7050280  58.6021010  62.2843376  12.7872841  58.8235957  62.1265064
  14.1210423  58.6767320  61.4255083  14.4885328  60.0012425  57.4146056
  15.2357146  60.5133823  57.1053178  14.7576917  59.6796478  58.2750450
  12.7611978  62.4970966  54.3973010  11.8523197  62.2129999  54.4945480
  12.7907062  62.9170045  53.5376317  17.9931245  66.1077556  58.1664178
  17.5393572  65.2668465  58.2229368  17.3625212  66.7438954  58.5038958
  16.9364165  57.0369542  59.3964845  16.1986921  56.5246928  59.7275088
  17.1890938  56.5969923  58.5848122  16.4364184  67.9454052  59.1013996
  16.7287159  68.5059109  58.3826362  16.9462805  68.2382613  59.8567155
  17.0375792  49.8145794  59.9906615  17.3434669  48.9543157  59.7032530
  17.7628397  50.4063414  59.7905608   3.3300148  60.2176480  58.3788213
   3.1324548  59.6245841  57.6539279   2.7746812  59.9128690  59.0964151
  11.3096872  60.1099587  60.4982806  11.3645482  59.1573423  60.4225282
  10.4988074  60.2659026  60.9824104  12.4588066  64.0379710  51.7361089
  12.0207495  63.3215569  51.2766726  13.1998506  64.2655825  51.1746180
   9.2489232  58.7276646  58.2573185   8.4357097  59.0270817  58.6638377
   9.7448226  58.3332335  58.9747667  11.3997810  68.7234403  60.1907449
  11.3573988  68.9495250  59.2615981  12.3160508  68.4897778  60.3393250
  14.8463443  59.1918471  67.0888078  15.2012831  59.4189944  67.9482544
  15.4935575  59.5236848  66.4665334  20.5761180  62.3136907  57.7937407
  20.4379079  62.5038503  56.8658597  20.2197399  63.0756290  58.2505459
   8.7403306  56.2995002  63.8734419   9.3802686  56.1583761  63.1757383
   7.9080837  56.0129515  63.4973021  20.6030560  64.3813434  62.8048679
  21.0367067  64.2888723  63.6531733  21.3162141  64.3570934  62.1668695
   9.5163610  65.5997432  59.9869412  10.3104209  65.1047753  59.7851987
   8.8055303  65.0715296  59.6237117  14.3358455  67.9815528  64.3381780
  14.3895477  68.5506464  65.1059495  13.4673236  68.1517413  63.9735817
   5.8246374  59.7440514  56.0629165   4.8943962  59.6824970  56.2799127
   5.9203846  59.2216467  55.2665806   5.7431923  56.2695327  58.6507406
   6.0038740  57.1840660  58.5416567   6.5649095  55.8019770  58.8004019
   7.2156848  57.6833084  65.8206231   7.8879902  57.4750446  65.1718880
   6.3886635  57.4855170  65.3811463  21.4646109  64.4237134  65.3381564
  21.6582000  65.3282945  65.5840839  21.3646728  63.9644554  66.1720149
  13.1182420  54.3095025  67.8371892  12.4710335  55.0084975  67.7436368
  13.8883436  54.7431169  68.2048140  16.5261218  64.5743877  70.9122445
  16.3746725  64.3454429  69.9952529  16.5165898  65.5314479  70.9253790
  13.2946555  62.1475790  65.8968711  14.2238615  62.2986950  65.7237679
  12.8737585  62.2359811  65.0417358  12.0934886  66.1726454  63.6667249
  11.9545972  65.8045239  64.5393187  11.3049483  66.6874094  63.4951207
  12.6883038  71.2735551  55.0092786  12.8634794  70.8023594  55.8238408
  12.0015826  71.9001317  55.2374046  13.6440101  65.5508057  61.0556087
  13.3089934  65.5108827  61.9513737  13.1444047  64.8852773  60.5826497
   7.6184345  60.9575687  66.5808668   7.4804143  60.2255926  67.1820207
   8.5289269  60.8684587  66.2992856  16.5799293  62.8964091  51.3293146
  15.9628464  62.1710920  51.2326199  16.1115782  63.6573452  50.9860221
  10.2466646  60.6695646  66.0692348  10.9566265  60.0288839  66.0278966
  10.2035954  60.9208541  66.9918528  18.2353425  67.6063000  68.9898927
  18.1765971  66.9222220  68.3229510  18.6372943  68.3481990  68.5379553
   8.9595580  57.6560864  67.8887987   8.4232937  57.2051603  68.5409583
   8.3712289  57.7906773  67.1458451   7.2544124  74.4224914  61.7832646
   7.4940722  75.0543438  62.4611664   6.4113320  74.0712954  62.0698005
   8.3697839  57.1149516  50.4514451   7.4927305  56.9938316  50.0876697
   8.8455592  56.3235594  50.1993339  18.2370832  65.5702584  67.2212906
  17.3497611  65.2328505  67.3439305  18.8069383  64.8385615  67.4581672
   4.6934701  56.7916872  64.9740982   4.6092890  56.1842542  64.2391392
   3.8717408  57.2825890  64.9750478  11.7671985  70.2304036  64.1874150
  11.6942157  71.0359008  64.6993454  11.3249379  70.4296002  63.3622171
  11.5561765  69.4675806  57.6976971  10.7729287  70.0097486  57.7915196
  12.2554510  69.9849786  58.0971212  14.8658415  55.2770436  60.3411177
  15.3627115  54.5240398  60.0212247  14.0945397  55.3134752  59.7754386
  22.7188173  60.9810801  61.9829468  22.7078049  61.8635516  61.6123401
  21.8505552  60.6282352  61.7884005  14.2270669  70.1290870  66.3432308
  14.9398641  70.7638335  66.2708210  13.7360698  70.2254736  65.5272310
  15.9488196  64.0342123  57.9149600  15.0144475  64.1543585  57.7454304
  16.1264864  63.1314590  57.6509610  11.4493384  57.4187819  60.0682861
  11.0791171  56.8658859  60.7563767  11.9452476  56.8145952  59.5157861
  19.3360747  59.8759442  58.4499634  19.8021199  60.7087434  58.3759937
  19.7868248  59.4104424  59.1544893   9.2782583  67.8785314  67.1637879
   9.9792042  68.5121796  67.3167273   8.8077698  68.2200045  66.4033518
  17.4036978  66.2203263  55.4485786  17.6796822  66.1059858  56.3579660
  16.5341477  65.8220748  55.4097959  17.3077410  52.2440029  62.4890536
  16.3940490  52.4744256  62.6572742  17.7370511  52.3278473  63.3404568
  17.0783868  60.4329921  64.9890430  16.4255319  60.6805828  64.3342882
  17.4564248  59.6194059  64.6552907  14.0391042  70.4689614  59.0918600
  14.2213437  69.6511270  59.5546352  14.8624028  70.6857306  58.6543490
  14.3733208  69.3957799  56.3533648  14.9020974  68.8850254  55.7403810
  14.6361427  69.0800330  57.2179181  13.1271442  61.1749732  71.4756467
  12.4512079  61.0743861  72.1458842  13.9499075  61.0188946  71.9392464
   4.8750301  67.4121669  64.0968982   5.4603737  66.6665356  64.2296886
   4.6775139  67.7225625  64.9805646   7.7288956  70.4472916  59.1131424
   7.0599331  70.9319044  58.6295464   7.5901825  70.6942136  60.0274803
  11.8694224  72.4816659  65.7114083  12.4212532  72.6448281  66.4763168
  12.2100418  73.0721097  65.0394107   6.8458718  54.8291809  66.3135967
   6.9100044  55.6906640  65.9013365   6.7825838  54.2165811  65.5808326
   6.3210990  56.9014942  69.9609002   6.9483029  56.5192019  70.5746526
   5.4638909  56.6829144  70.3264694  16.7205099  67.3077917  71.5662737
  17.2645003  67.9207875  71.0717692  16.1391944  67.8657495  72.0829750
   3.0976533  58.7091371  55.8927356   3.3929974  57.8002049  55.8394410
   2.1964569  58.6879110  55.5708359  15.0062612  70.4298635  62.6977765
  14.8813751  69.6288375  62.1888710  15.6641703  70.9244828  62.2091735
   6.6270780  56.7847368  61.8754905   5.9057366  57.3983335  61.7362378
   7.4164036  57.3205132  61.7971551  17.0697520  68.2307655  64.3257315
  16.1227856  68.1113006  64.2535642  17.4180293  67.3430153  64.4083576
   9.4297093  54.1201794  68.1495557   9.9531495  54.3664091  68.9121866
   9.2109427  54.9521829  67.7298694   4.8264374  56.3905469  56.0166682
   4.4977081  55.5102848  55.8341787   5.1803745  56.3353137  56.9043071
  14.0743953  68.0260371  60.5261667  13.9268916  67.0977079  60.7069237
  14.8997447  68.0480462  60.0418742   7.9406198  56.6778438  56.3842159
   8.2802270  57.2064360  55.6620768   8.3878318  57.0158845  57.1600726
  17.6778075  68.8488930  61.6126540  18.6024623  68.6431791  61.4750991
  17.5093379  68.6005331  62.5215881  10.6349638  55.0615489  65.8345227
  10.2946459  54.2623302  66.2365907   9.9288645  55.3617200  65.2622060
  11.2866110  52.1464802  64.2872550  12.1092180  51.6725280  64.1651441
  11.5304174  52.9255285  64.7871237   9.9274345  55.1753060  54.5835452
  10.6482707  55.5534313  54.0799169   9.3039649  55.8941937  54.6870430
  14.0705468  55.8798209  55.5193784  14.2869082  56.7622847  55.2182612
  13.5899535  55.4884422  54.7899426   8.8104689  58.8383922  62.0964529
   8.6649270  59.1524225  62.9888810   8.3329893  59.4568823  61.5435428
  10.6701072  55.8286470  62.1445418  10.6562641  54.9327563  61.8077716
  11.3873500  55.8357134  62.7783705  12.5227203  56.2623810  64.1898546
  12.2644980  57.1840881  64.1882876  11.9912243  55.8654245  64.8799010
  17.4673391  69.3674597  56.9688631  17.6410269  68.8021020  56.2162484
  17.9602283  70.1675492  56.7868121   3.2850351  61.3789267  65.0352190
   2.7403819  62.1549075  65.1672464   4.1629701  61.7260071  64.8771312
  10.0737968  54.7100850  57.4132989  10.1953879  53.7817497  57.6123876
   9.7840010  54.7239536  56.5011304  12.9429158  52.3955761  60.5499708
  12.9650855  52.4595094  59.5951688  13.3597217  51.5560270  60.7440215
  23.3212783  62.1311020  58.5878931  23.7643929  61.3818346  58.1898054
  22.4439293  62.1221157  58.2052663  18.4548564  68.6841362  54.0685530
  19.1499469  69.3048055  54.2872844  18.7971714  67.8336713  54.3437907
   4.0716373  60.5059163  67.9282347   3.3298109  60.6541798  68.5146977
   3.7509117  60.7667428  67.0649096  20.3539987  66.1341067  55.5972860
  20.8791311  66.4728340  54.8722180  20.2662340  65.1988083  55.4135995
  12.0160036  70.0475141  67.7262737  12.3247162  69.8024288  68.5985437
  12.8135518  70.2521780  67.2381607  12.0380648  72.2013051  59.9568114
  11.5985638  71.7089429  60.6500970  12.7888765  71.6586018  59.7160189
   4.5172987  68.3924592  59.9592742   5.3431007  68.0928363  59.5791385
   4.1667039  67.6232214  60.4082530   9.4854520  67.7451060  62.0290415
   8.8634529  67.0821765  61.7292643  10.1559387  67.7712192  61.3464063
   2.7181592  66.3110918  60.9181675   1.8813500  65.8833092  60.7365676
   2.6905237  66.5043361  61.8552466   9.5579047  56.2232848  71.6222921
   9.6067203  57.0994971  71.2400691  10.1001562  55.6810241  71.0494564
  20.0433893  66.7673971  70.9024058  19.2529437  66.7498110  70.3628558
  19.8067248  67.3062265  71.6573095  20.1631768  63.6166437  68.2156787
  20.2129773  63.4516445  69.1572310  20.0545691  62.7493696  67.8254668
   9.0468027  66.2954983  55.5048876   9.1956147  66.9790448  54.8515548
   9.8534470  66.2760073  56.0198331  17.4535531  59.5997365  69.5316094
  18.3545393  59.4603830  69.2400091  17.5283505  59.7651820  70.4714271
  11.7878336  56.9764220  68.3769280  10.9181645  57.2697786  68.1051868
  12.0237816  57.5604665  69.0976543  21.6649965  66.0363379  68.4598808
  21.3734773  66.3993360  69.2962269  21.0522096  65.3230387  68.2812140
  22.8645647  63.6016259  60.9801379  23.6992539  64.0406063  61.1438939
  23.0004776  63.1254912  60.1609624  19.9137153  61.1595994  66.9278866
  20.3891275  61.3523640  66.1197718  18.9902719  61.2155179  66.6822250
   6.8020660  62.3220161  56.5109945   6.5566702  61.4182491  56.7090155
   6.9716574  62.3237311  55.5689423  14.4917370  53.1943837  65.8934700
  15.0099314  53.9304864  65.5681189  14.1372502  53.5007830  66.7281459
   6.0716307  58.0548518  54.0096106   5.3785552  58.1292873  53.3536142
   5.8268059  57.2908862  54.5317623  14.7429964  49.6144120  61.4135597
  15.0231718  48.9467309  62.0396023  15.5280571  49.8073215  60.9010261
  12.5463432  68.7903114  52.9760623  11.9737399  69.4093301  52.5231095
  13.1196226  69.3402475  53.5100545  18.6138822  58.0361754  65.1607172
  19.5656245  58.1359851  65.1819396  18.4442273  57.2440022  65.6705256
  16.6353202  55.1217337  65.3466573  16.0403134  55.4022350  64.6513062
  16.3502898  55.6111238  66.1183314  15.7660692  69.0740264  54.1069205
  16.6991365  69.0085825  54.3102081  15.6783905  69.9096531  53.6483738
  18.3948709  68.3906134  51.0673153  18.3162340  68.0565998  51.9608911
  19.2158376  68.8827902  51.0664625  21.0926900  61.2567873  64.2749472
  21.0603220  60.3183874  64.4609155  21.7027524  61.3351910  63.5415296
  12.9310231  60.1263926  50.3176676  13.8769336  59.9970134  50.3865094
  12.5524476  59.3878588  50.7946104  21.2421388  58.0478917  64.3207755
  20.7260437  57.2637373  64.1337684  22.1261337  57.7197633  64.4854274
  18.9032115  51.7919932  60.2803567  18.7056937  51.4835021  61.1646899
  19.5131821  52.5181571  60.4101497  26.9103450  62.3183880  63.4155508
  27.6406838  62.0569168  63.9763212  26.3010395  61.5812602  63.4557576
  24.9918747  60.4591743  64.0129960  24.2651911  60.3247708  63.4046451
  24.5766034  60.7668571  64.8186678  12.8148923  64.1781672  71.7777333
  13.7351933  64.3560271  71.9717379  12.7798506  63.2337718  71.6257032
  11.1153148  58.0513903  50.2531561  10.2084603  57.7547015  50.3294274
  11.3929129  57.7543721  49.3865847   2.0331088  59.3720266  60.7030607
   1.7133873  58.5185574  60.4104981   1.4864517  59.5868844  61.4588575
   5.8110996  62.0882707  64.4200114   6.0297006  63.0199815  64.4388148
   6.2236770  61.7290682  65.2054918  12.7315214  52.5950792  56.4075802
  11.9215942  52.2497877  56.7831048  13.4199631  52.2858336  56.9963414
  14.6605762  51.6728839  58.0300099  15.2136801  52.0924293  58.6890122
  14.8975848  50.7464587  58.0723055  10.6838861  57.6615913  73.8102863
  10.5835588  58.6110270  73.7414954  10.4660403  57.3334152  72.9378933
   9.8851933  54.9100838  50.3943540  10.7471097  55.2355736  50.6539357
  10.0702277  54.1232334  49.8816606   1.9019348  62.9923178  62.6723729
   1.2082820  62.5777130  62.1593683   2.6492339  63.0343714  62.0757148
  18.0384569  53.7829364  57.5378763  17.4583238  54.4414168  57.1556815
  17.7720502  52.9606709  57.1266181  16.4888135  53.1834422  59.7400083
  16.9887914  53.2950957  58.9314402  17.1323743  52.8795475  60.3800892
  10.5470131  61.0913052  72.6267924  10.0637213  61.8913412  72.8331813
  10.6331070  61.1020997  71.6735368   3.8156091  62.9241431  60.5489744
   3.7926779  63.0229119  59.5971627   4.1256727  63.7706582  60.8706910
   6.4743469  64.9817586  64.6636358   7.4286722  64.9501529  64.5966290
   6.2755992  64.5208210  65.4786584   7.0642851  63.5518702  67.2307156
   7.8835740  64.0462781  67.2541993   7.3379659  62.6350671  67.2024723
  16.8209447  55.9429455  56.5935111  15.9335302  56.2279105  56.3755306
  17.2363436  55.7823218  55.7462388  20.1723983  55.9675976  60.3089451
  20.9484373  56.4572428  60.5814067  19.4472117  56.3934030  60.7661320
  22.6096542  56.6803595  61.3663391  23.2041033  56.4399331  60.6556699
  22.6823126  55.9610726  61.9936927   4.8293698  70.5237206  61.6806556
   4.6948166  69.7637607  61.1144554   4.4125760  71.2478106  61.2135345
  15.9652661  65.7074129  50.6883131  16.6688511  65.9124132  51.3040787
  15.2415309  66.2750891  50.9532215  16.7950471  61.4583991  56.8085401
  16.7385672  61.9152542  55.9693034  17.3478813  60.6974675  56.6308244
  20.6055277  57.2473723  57.6335521  20.3492211  56.8470358  58.4643729
  19.9808145  57.9617517  57.5085660  24.9167615  59.9869796  60.1406812
  24.3567173  60.0562985  60.9138374  24.3111118  59.8110780  59.4206309
   7.9862823  71.4206523  61.8924999   7.8695208  72.3651955  61.7903689
   7.1655270  71.1180084  62.2810798  17.8739358  66.1456659  52.7381591
  18.7084962  65.7137857  52.5559066  17.7123701  65.9738672  53.6658486
  17.5285250  62.6488772  54.1037931  17.4734054  62.4833043  53.1626375
  16.9031305  63.3564805  54.2600120   2.3177765  57.8856836  67.9299353
   2.9636629  57.3755790  68.4186578   2.1094916  58.6225518  68.5042778
  14.8431157  64.9537684  73.4291493  15.7122317  65.1278336  73.0678128
  14.3637909  65.7732101  73.3067223  10.8381376  52.1496881  53.6823249
  10.8260045  53.0938721  53.8391520  11.7304797  51.9667026  53.3882710
   9.0117338  72.0734785  65.1080927   9.9144584  72.1058395  65.4247422
   8.7854708  71.1435236  65.1227263  10.7670940  70.8265771  61.7691006
   9.8166571  70.8267633  61.6555378  11.0703426  70.0798506  61.2527040
  14.6533495  48.7439658  57.9369186  13.8865891  48.1898144  58.0825868
  15.0644200  48.8161526  58.7983337   6.6575256  55.0324453  72.0274367
   7.5206718  54.6761258  72.2377692   6.0840667  54.6938348  72.7149771
  23.3113339  76.6153738  62.7698293  22.9731851  76.4994803  61.8818828
  24.1803108  76.2144903  62.7499299  19.1700155  78.4689214  58.7595184
  18.6065020  78.3779151  57.9911472  19.0552550  77.6489119  59.2397676
  23.7933122  77.7688590  68.7284498  23.7821763  77.3741388  67.8565002
  23.9553762  77.0354662  69.3218270  16.7164587  79.9640406  61.5979404
  17.5085879  79.6231231  61.1825704  16.9561237  80.0735381  62.5181558
  24.7499714  82.1360182  54.0709649  24.0987694  82.7214262  53.6843662
  25.5444077  82.6666377  54.1304686  18.6755341  79.2249319  54.4696783
  19.4486217  78.6778306  54.3309659  19.0280740  80.0893568  54.6811244
  20.5140383  80.5525701  67.6763682  20.2230249  81.4571332  67.5610349
  21.1497368  80.5942229  68.3907752  21.4396590  77.9302550  64.2665042
  22.0360163  77.7058572  63.5522005  21.4971562  77.1887295  64.8690490
  21.0121619  75.3841985  52.1015233  21.2647139  74.8623507  51.3398696
  20.0746178  75.2208131  52.2041917  26.0564902  74.3877764  59.9089976
  26.8427991  73.9697187  59.5580393  26.3203606  75.2923856  60.0771625
  26.2274979  79.8250614  54.6078633  25.5920812  79.8985240  55.3199538
  25.8972385  80.4144213  53.9297712  20.7317907  77.2870091  54.3039608
  20.6154166  76.6114995  54.9720692  20.8420167  76.8002465  53.4871761
  23.0749448  76.7480238  58.0086297  22.7107656  76.2210859  58.7199219
  23.9316564  76.3578707  57.8352783  28.9798749  68.0374571  65.2717563
  28.6482074  68.9069982  65.0478778  28.3844362  67.7210855  65.9511594
  22.7154935  71.7770138  53.0047646  22.8829338  72.6450374  53.3718117
  22.5252104  71.9397420  52.0808935  18.9242750  76.6900914  60.7050180
  17.9993247  76.5577128  60.9127872  19.1727163  77.4695133  61.2020123
  28.8727412  72.7569657  62.3510913  27.9644290  72.6885066  62.0569674
  28.8215008  73.2341602  63.1792739  22.6944156  74.2327796  53.9894312
  22.5743781  74.6784846  54.8279793  21.9996745  74.5813113  53.4307851
  16.2851561  76.3334187  61.5393970  16.4143942  76.5868666  62.4533381
  15.6049012  76.9261895  61.2198625  20.4551048  87.0031437  57.6384444
  20.3775078  87.9539262  57.7172924  19.8512692  86.6577310  58.2959370
  22.9468278  74.1759303  70.2945811  22.1701612  74.7353223  70.2848675
  23.5858841  74.6616086  70.8160681  28.3929222  74.7049269  54.8174647
  29.3047079  74.9376655  54.6422344  27.8838869  75.2886313  54.2549725
  21.2014650  76.9844756  69.8563778  21.9429335  77.5229800  69.5798601
  20.4951636  77.6111045  70.0135329  23.0301060  74.0646503  65.8269496
  23.8762255  74.4885917  65.9704145  22.9699698  73.4080128  66.5208059
  26.1800505  71.7250872  67.4850670  25.9361437  72.4792932  66.9484945
  26.4560436  72.1036219  68.3197917  25.7365197  70.8807305  63.0664507
  24.8749676  71.1788558  63.3581245  25.7627632  71.0977704  62.1345540
  22.5526767  79.4249495  59.4738313  23.0165112  79.7037198  58.6842936
  22.2883565  78.5232940  59.2911404  19.4450848  78.9720977  62.4118076
  20.0152205  79.4008245  61.7735561  20.0358960  78.6903561  63.1102262
  21.4895653  75.5472648  56.2827878  22.1919696  75.9993691  56.7501805
  21.1576281  74.9056466  56.9107771  19.9376014  74.1384404  70.6579088
  19.3074675  74.8200685  70.8914484  19.8312102  74.0267486  69.7132226
  15.2320987  73.8056200  61.5845012  14.4420041  74.0613729  61.1085122
  15.7232234  74.6204538  61.6897052  17.1835732  74.1700780  58.5428488
  16.3866895  74.2819474  59.0611984  16.9561324  74.5087432  57.6769379
  23.0141400  80.6945483  66.4911003  23.0785832  81.1565890  67.3269175
  22.3052324  80.0642848  66.6193313  13.5158690  74.0586691  64.0160003
  13.7666728  74.9433701  64.2817579  14.0518238  73.8791292  63.2435094
  22.7289417  82.3613590  56.3589983  22.5935092  83.2065126  56.7874831
  23.2699230  82.5632868  55.5955917  19.2156757  68.4405170  73.0204339
  18.8223702  67.8871369  73.6951983  20.0322897  68.7515749  73.4110856
  16.1818815  79.8789028  56.9317909  16.6943335  80.6732279  57.0823473
  16.8341528  79.1815319  56.8651510  17.9913699  82.9954785  59.0140662
  18.1680328  83.9172749  58.8261646  18.7870533  82.6813204  59.4435041
  22.1324718  69.8563049  70.6124595  22.8734431  70.4570202  70.5329058
  22.3642641  69.1140687  70.0542638  17.2766056  75.0419416  68.8902825
  17.1619571  74.1404674  69.1909924  16.4210574  75.2883113  68.5387641
  24.3557894  82.9837157  70.4890326  23.9121748  82.1973535  70.1711230
  25.0175107  83.1716307  69.8234216  19.1145015  84.5132958  65.0151004
  19.6652440  84.3850022  64.2427998  18.2756491  84.8127847  64.6645897
  26.4539132  83.2639957  68.5171727  26.4357607  84.0848838  68.0251996
  27.3759052  83.1394032  68.7421868  22.9112186  80.7784086  69.3595235
  23.4440523  80.0172374  69.1294543  22.3826267  80.4857738  70.1019390
  26.0781881  65.8844152  64.8888877  25.7346150  66.7745794  64.8127987
  26.4460843  65.6945810  64.0258462  14.1467731  78.2077683  57.7077479
  14.9842953  78.6174691  57.4911187  14.3245999  77.2677125  57.6777673
  26.0432164  75.8752763  53.3961312  25.5278787  76.6457368  53.6349699
  25.7709472  75.2017899  54.0194373  23.6279275  70.7202464  58.4546550
  22.7720871  70.3309314  58.2752189  24.0406226  70.7994425  57.5946336
  25.1578421  68.2548807  62.8538110  24.6543217  68.2178942  62.0405915
  25.4509028  69.1641550  62.9134767  21.4021307  68.3387537  61.8604292
  22.2674304  68.1430346  61.5010181  21.4698816  68.1097889  62.7873649
  25.8318467  73.7479855  55.2221093  25.5268602  74.0626004  56.0731236
  26.7848909  73.8261275  55.2648426  24.2764899  79.9070079  56.8714047
  23.7486260  79.1722838  56.5587285  23.7752401  80.6844755  56.6254016
  19.0083626  70.5689745  59.2320659  19.5827378  70.3464926  58.4993852
  19.5954609  70.6378439  59.9849260  19.3353213  72.5994206  53.2516544
  18.4990526  72.9368892  53.5725819  19.1957983  72.4643186  52.3143681
  21.3106294  67.4430994  57.9595728  20.6570706  67.1280011  57.3352343
  21.2686768  66.8206734  58.6855551  22.4217499  77.7250289  49.8749020
  21.5144561  77.4939542  50.0740169  22.9188531  76.9287908  50.0623002
  25.3285578  86.4347796  52.7945706  24.6547276  86.7379493  53.4030664
  25.7151400  87.2376876  52.4451163  24.5444034  73.9312927  62.2843376
  23.6266596  74.1527874  62.1265064  24.9604178  74.0059238  61.4255083
  25.3279082  75.3304343  57.4146056  26.0750901  75.8425740  57.1053178
  25.5970672  75.0088396  58.2750450  23.6005732  77.8262884  54.3973010
  22.6916951  77.5421917  54.4945480  23.6300816  78.2461962  53.5376317
  27.7757919  72.3661459  59.3964845  27.0380676  71.8538845  59.7275088
  28.0284693  71.9261841  58.5848122  27.2757939  83.2745970  59.1013996
  27.5680913  83.8351027  58.3826362  27.7856559  83.5674531  59.8567155
  27.8769547  65.1437711  59.9906615  28.1828423  64.2835075  59.7032530
  28.6022151  65.7355331  59.7905608  14.1693903  75.5468398  58.3788213
  13.9718302  74.9537759  57.6539279  13.6140567  75.2420608  59.0964151
  22.1490626  75.4391504  60.4982806  22.2039236  74.4865341  60.4225282
  21.3381828  75.5950943  60.9824104  23.2981820  79.3671627  51.7361089
  22.8601250  78.6507486  51.2766726  24.0392261  79.5947742  51.1746180
  20.0882986  74.0568564  58.2573185  19.2750852  74.3562735  58.6638377
  20.5841980  73.6624253  58.9747667  22.2391564  84.0526321  60.1907449
  22.1967743  84.2787167  59.2615981  23.1554263  83.8189696  60.3393250
  19.5797061  71.6286920  63.8734419  20.2196440  71.4875679  63.1757383
  18.7474591  71.3421433  63.4973021  20.3557365  80.9289350  59.9869412
  21.1497963  80.4339670  59.7851987  19.6449057  80.4007213  59.6237117
  25.1752209  83.3107446  64.3381780  25.2289232  83.8798382  65.1059495
  24.3066991  83.4809331  63.9735817  16.6640128  75.0732432  56.0629165
  15.7337716  75.0116887  56.2799127  16.7597600  74.5508385  55.2665806
  16.5825677  71.5987245  58.6507406  16.8432495  72.5132578  58.5416567
  17.4042850  71.1311687  58.8004019  18.0550603  73.0125002  65.8206231
  18.7273656  72.8042364  65.1718880  17.2280389  72.8147088  65.3811463
  23.9576175  69.6386943  67.8371892  23.3104090  70.3376892  67.7436368
  24.7277190  70.0723087  68.2048140  24.1340309  77.4767708  65.8968711
  25.0632369  77.6278867  65.7237679  23.7131339  77.5651728  65.0417358
  22.9328641  81.5018372  63.6667249  22.7939727  81.1337156  64.5393187
  22.1443237  82.0166011  63.4951207  23.5276793  86.6027469  55.0092786
  23.7028548  86.1315512  55.8238408  22.8409581  87.2293235  55.2374046
  24.4833856  80.8799975  61.0556087  24.1483689  80.8400745  61.9513737
  23.9837802  80.2144691  60.5826497  18.4578100  76.2867605  66.5808668
  18.3197898  75.5547844  67.1820207  19.3683023  76.1976505  66.2992856
  27.4193048  78.2256009  51.3293146  26.8022218  77.5002837  51.2326199
  26.9509536  78.9865369  50.9860221  21.0860401  75.9987564  66.0692348
  21.7960019  75.3580756  66.0278966  21.0429709  76.2500459  66.9918528
  19.7989335  72.9852782  67.8887987  19.2626692  72.5343520  68.5409583
  19.2106043  73.1198691  67.1458451  18.0937878  89.7516831  61.7832646
  18.3334476  90.3835355  62.4611664  17.2507075  89.4004871  62.0698005
  19.2091594  72.4441433  50.4514451  18.3321060  72.3230234  50.0876697
  19.6849347  71.6527512  50.1993339  10.7293734  77.2318593  60.5455958
  11.4164774  76.9180323  59.9576973  10.5741862  78.1359958  60.2723209
  15.5328456  72.1208790  64.9740982  15.4486645  71.5134459  64.2391392
  14.7111162  72.6117808  64.9750478  22.6065740  85.5595954  64.1874150
  22.5335911  86.3650925  64.6993454  22.1643133  85.7587920  63.3622171
  22.3955520  84.7967724  57.6976971  21.6123041  85.3389404  57.7915196
  23.0948265  85.3141703  58.0971212  25.7052170  70.6062353  60.3411177
  26.2020869  69.8532316  60.0212247  24.9339151  70.6426670  59.7754386
  25.0664423  85.4582788  66.3432308  25.7792396  86.0930253  66.2708210
  24.5754452  85.5546654  65.5272310  22.2887138  72.7479736  60.0682861
  21.9184926  72.1950777  60.7563767  22.7846231  72.1437870  59.5157861
  20.1176337  83.2077231  67.1637879  20.8185797  83.8413714  67.3167273
  19.6471452  83.5491963  66.4033518  28.2430733  81.5495181  55.4485786
  28.5190577  81.4351776  56.3579660  27.3735232  81.1512666  55.4097959
  28.1471164  67.5731947  62.4890536  27.2334244  67.8036174  62.6572742
  28.5764266  67.6570391  63.3404568  24.8784797  85.7981532  59.0918600
  25.0607191  84.9803188  59.5546352  25.7017783  86.0149224  58.6543490
  25.2126962  84.7249717  56.3533648  25.7414729  84.2142172  55.7403810
  25.4755182  84.4092247  57.2179181  23.9665196  76.5041650  71.4756467
  23.2905833  76.4035779  72.1458842  24.7892830  76.3480863  71.9392464
  15.7144055  82.7413586  64.0968982  16.2997492  81.9957274  64.2296886
  15.5168894  83.0517543  64.9805646  18.5682710  85.7764834  59.1131424
  17.8993086  86.2610961  58.6295464  18.4295580  86.0234054  60.0274803
  10.3061710  75.3119186  62.8173425  10.3445809  74.7782777  63.6110543
   9.8002003  74.7854392  62.1984402  22.7087979  87.8108577  65.7114083
  23.2606287  87.9740199  66.4763168  23.0494172  88.4013015  65.0394107
  17.6852472  70.1583727  66.3135967  17.7493799  71.0198558  65.9013365
  17.6219592  69.5457729  65.5808326  17.1604745  72.2306860  69.9609002
  17.7876783  71.8483937  70.5746526  16.3032663  72.0121061  70.3264694
  13.9370287  74.0383289  55.8927356  14.2323728  73.1293967  55.8394410
  13.0358323  74.0171028  55.5708359  25.8456366  85.7590553  62.6977765
  25.7207506  84.9580293  62.1888710  26.5035457  86.2536746  62.2091735
  17.4664534  72.1139285  61.8754905  16.7451120  72.7275253  61.7362378
  18.2557790  72.6497050  61.7971551  27.9091275  83.5599573  64.3257315
  26.9621610  83.4404924  64.2535642  28.2574048  82.6722071  64.4083576
  20.2690848  69.4493712  68.1495557  20.7925250  69.6956008  68.9121866
  20.0503181  70.2813747  67.7298694  15.6658129  71.7197386  56.0166682
  15.3370835  70.8394765  55.8341787  16.0197500  71.6645055  56.9043071
  24.9137708  83.3552289  60.5261667  24.7662670  82.4268996  60.7069237
  25.7391201  83.3772380  60.0418742  18.7799952  72.0070356  56.3842159
  19.1196025  72.5356277  55.6620768  19.2272073  72.3450762  57.1600726
  28.5171830  84.1780848  61.6126540  29.4418377  83.9723709  61.4750991
  28.3487133  83.9297249  62.5215881  21.4743393  70.3907407  65.8345227
  21.1340213  69.5915220  66.2365907  20.7682399  70.6909118  65.2622060
  22.1259865  67.4756719  64.2872550  22.9485934  67.0017197  64.1651441
  22.3697928  68.2547203  64.7871237  20.7668099  70.5044978  54.5835452
  21.4876462  70.8826230  54.0799169  20.1433403  71.2233854  54.6870430
  24.9099222  71.2090127  55.5193784  25.1262837  72.0914765  55.2182612
  24.4293289  70.8176340  54.7899426  19.6498444  74.1675840  62.0964529
  19.5043024  74.4816143  62.9888810  19.1723647  74.7860740  61.5435428
  21.5094826  71.1578388  62.1445418  21.4956395  70.2619481  61.8077716
  22.2267255  71.1649052  62.7783705  23.3620957  71.5915728  64.1898546
  23.1038735  72.5132799  64.1882876  22.8305998  71.1946163  64.8799010
  28.3067146  84.6966515  56.9688631  28.4804023  84.1312938  56.2162484
  28.7996037  85.4967410  56.7868121  14.1244106  76.7081184  65.0352190
  13.5797574  77.4840992  65.1672464  15.0023456  77.0551989  64.8771312
  20.9131722  70.0392768  57.4132989  21.0347634  69.1109414  57.6123876
  20.6233765  70.0531454  56.5011304  23.7822913  67.7247679  60.5499708
  23.8044610  67.7887012  59.5951688  24.1990972  66.8852187  60.7440215
  29.2942318  84.0133280  54.0685530  29.9893223  84.6339972  54.2872844
  29.6365469  83.1628631  54.3437907  14.9110128  75.8351081  67.9282347
  14.1691864  75.9833716  68.5146977  14.5902872  76.0959346  67.0649096
  31.1933742  81.4632985  55.5972860  31.7185066  81.8020258  54.8722180
  31.1056094  80.5280000  55.4135995  22.8553790  85.3767059  67.7262737
  23.1640917  85.1316206  68.5985437  23.6529272  85.5813697  67.2381607
  22.8774402  87.5304968  59.9568114  22.4379393  87.0381347  60.6500970
  23.6282519  86.9877936  59.7160189  15.3566741  83.7216509  59.9592742
  16.1824761  83.4220281  59.5791385  15.0060793  82.9524132  60.4082530
  20.3248274  83.0742977  62.0290415  19.7028284  82.4113682  61.7292643
  20.9953141  83.1004109  61.3464063  13.5575346  81.6402836  60.9181675
  12.7207255  81.2125010  60.7365676  13.5298992  81.8335279  61.8552466
  20.3972802  71.5524765  71.6222921  20.4460957  72.4286888  71.2400691
  20.9395316  71.0102159  71.0494564  19.8861781  81.6246901  55.5048876
  20.0349902  82.3082365  54.8515548  20.6928225  81.6051991  56.0198331
  22.6272090  72.3056138  68.3769280  21.7575400  72.5989704  68.1051868
  22.8631571  72.8896583  69.0976543  17.6414414  77.6512078  56.5109945
  17.3960456  76.7474408  56.7090155  17.8110329  77.6529229  55.5689423
  25.3311124  68.5235755  65.8934700  25.8493068  69.2596782  65.5681189
  24.9766257  68.8299748  66.7281459  16.9110062  73.3840436  54.0096106
  16.2179307  73.4584791  53.3536142  16.6661814  72.6200780  54.5317623
  25.5823718  64.9436037  61.4135597  25.8625472  64.2759226  62.0396023
  26.3674325  65.1365133  60.9010261  23.3857187  84.1195031  52.9760623
  22.8131154  84.7385218  52.5231095  23.9589981  84.6694393  53.5100545
  27.4746956  70.4509255  65.3466573  26.8796888  70.7314267  64.6513062
  27.1896653  70.9403155  66.1183314  26.6054447  84.4032181  54.1069205
  27.5385120  84.3377743  54.3102081  26.5177659  85.2388448  53.6483738
  29.2342463  83.7198052  51.0673153  29.1556095  83.3857915  51.9608911
  30.0552130  84.2119820  51.0664625  23.7703985  75.4555844  50.3176676
  24.7163090  75.3262052  50.3865094  23.3918230  74.7170506  50.7946104
  29.7425870  67.1211850  60.2803567  29.5450691  66.8126938  61.1646899
  30.3525575  67.8473489  60.4101497  23.6542678  79.5073590  71.7777333
  24.5745687  79.6852189  71.9717379  23.6192261  78.5629636  71.6257032
  21.9546902  73.3805820  50.2531561  21.0478358  73.0838933  50.3294274
  22.2322883  73.0835638  49.3865847  12.8724843  74.7012184  60.7030607
  12.5527627  73.8477492  60.4104981  12.3258271  74.9160762  61.4588575
  16.6504750  77.4174625  64.4200114  16.8690760  78.3491733  64.4388148
  17.0630524  77.0582599  65.2054918  23.5708968  67.9242710  56.4075802
  22.7609697  67.5789795  56.7831048  24.2593385  67.6150254  56.9963414
  25.4999516  67.0020757  58.0300099  26.0530555  67.4216210  58.6890122
  25.7369603  66.0756505  58.0723055  21.5232616  72.9907831  73.8102863
  21.4229343  73.9402188  73.7414954  21.3054158  72.6626069  72.9378933
  20.7245687  70.2392756  50.3943540  21.5864851  70.5647654  50.6539357
  20.9096031  69.4524252  49.8816606  12.7413103  78.3215095  62.6723729
  12.0476574  77.9069048  62.1593683  13.4886094  78.3635632  62.0757148
  28.8778324  69.1121282  57.5378763  28.2976993  69.7706086  57.1556815
  28.6114256  68.2898627  57.1266181  27.3281890  68.5126340  59.7400083
  27.8281668  68.6242874  58.9314402  27.9717498  68.2087393  60.3800892
  21.3863886  76.4204969  72.6267924  20.9030967  77.2205330  72.8331813
  21.4724825  76.4312914  71.6735368  14.6549845  78.2533349  60.5489744
  14.6320534  78.3521036  59.5971627  14.9650482  79.0998500  60.8706910
  17.3137223  80.3109504  64.6636358  18.2680477  80.2793446  64.5966290
  17.1149747  79.8500128  65.4786584  17.9036605  78.8810620  67.2307156
  18.7229494  79.3754699  67.2541993  18.1773413  77.9642588  67.2024723
  27.6603202  71.2721372  56.5935111  26.7729057  71.5571023  56.3755306
  28.0757191  71.1115136  55.7462388  31.0117738  71.2967893  60.3089451
  31.7878128  71.7864346  60.5814067  30.2865872  71.7225948  60.7661320
  15.6687452  85.8529124  61.6806556  15.5341920  85.0929524  61.1144554
  15.2519514  86.5770023  61.2135345  26.8046415  81.0366047  50.6883131
  27.5082265  81.2416050  51.3040787  26.0809064  81.6042809  50.9532215
  18.8256578  86.7498441  61.8924999  18.7088962  87.6943873  61.7903689
  18.0049024  86.4472002  62.2810798  28.7133112  81.4748576  52.7381591
  29.5478716  81.0429775  52.5559066  28.5517455  81.3030590  53.6658486
  28.3679005  77.9780690  54.1037931  28.3127808  77.8124961  53.1626375
  27.7425060  78.6856723  54.2600120  13.1571520  73.2148754  67.9299353
  13.8030383  72.7047708  68.4186578  12.9488671  73.9517436  68.5042778
  25.6824912  80.2829602  73.4291493  26.5516071  80.4570254  73.0678128
  25.2031663  81.1024018  73.3067223  21.6775130  67.4788799  53.6823249
  21.6653800  68.4230639  53.8391520  22.5698552  67.2958944  53.3882710
  19.8511092  87.4026703  65.1080927  20.7538339  87.4350313  65.4247422
  19.6248462  86.4727153  65.1227263  21.6064694  86.1557689  61.7691006
  20.6560325  86.1559551  61.6555378  21.9097180  85.4090424  61.2527040
  25.4927250  64.0731575  57.9369186  24.7259645  63.5190062  58.0825868
  25.9037955  64.1453444  58.7983337  17.4969011  70.3616371  72.0274367
  18.3600472  70.0053176  72.2377692  16.9234421  70.0230266  72.7149771
  37.3417388  91.9918227  62.8336768  37.9795798  91.8724975  62.1300108
  37.2238230  92.9399071  62.8924720  34.1507094  91.9445656  62.7698293
  33.8125605  91.8286720  61.8818828  35.0196862  91.5436821  62.7499299
  30.0093910  93.7981132  58.7595184  29.4458775  93.7071069  57.9911472
  29.8946305  92.9781036  59.2397676  34.6326877  93.0980507  68.7284498
  34.6215518  92.7033306  67.8565002  34.7947516  92.3646580  69.3218270
  27.5558341  95.2932324  61.5979404  28.3479633  94.9523148  61.1825704
  27.7954992  95.4027299  62.5181558  35.5893468  97.4652100  54.0709649
  34.9381448  98.0506180  53.6843662  36.3837831  97.9958295  54.1304686
  29.5149095  94.5541237  54.4696783  30.2879971  94.0070224  54.3309659
  29.8674494  95.4185486  54.6811244  31.3534138  95.8817619  67.6763682
  31.0624004  96.7863250  67.5610349  31.9891122  95.9234147  68.3907752
  32.2790345  93.2594468  64.2665042  32.8753917  93.0350490  63.5522005
  32.3365316  92.5179213  64.8690490  31.8515373  90.7133903  52.1015233
  32.1040894  90.1915424  51.3398696  30.9139932  90.5500048  52.2041917
  36.8958656  89.7169681  59.9089976  37.6821745  89.2989104  59.5580393
  37.1597360  90.6215773  60.0771625  37.0668733  95.1542532  54.6078633
  36.4314566  95.2277158  55.3199538  36.7366140  95.7436130  53.9297712
  42.2967083  89.6544915  60.8122955  43.0292255  89.0844131  61.0460784
  41.5406439  89.2666515  61.2529460  31.5711662  92.6162009  54.3039608
  31.4547920  91.9406912  54.9720692  31.6813922  92.1294383  53.4871761
  33.9143203  92.0772156  58.0086297  33.5501410  91.5502777  58.7199219
  34.7710319  91.6870625  57.8352783  33.5548690  87.1062056  53.0047646
  33.7223092  87.9742292  53.3718117  33.3645859  87.2689337  52.0808935
  36.3124023  95.5679035  64.6713476  36.0124746  96.4704073  64.5629283
  35.9675083  95.3011218  65.5234629  29.7636505  92.0192831  60.7050180
  28.8387001  91.8869046  60.9127872  30.0120918  92.7987051  61.2020123
  39.7121167  88.0861575  62.3510913  38.8038044  88.0176983  62.0569674
  39.6608763  88.5633520  63.1792739  33.5337911  89.5619713  53.9894312
  33.4137536  90.0076764  54.8279793  32.8390499  89.9105031  53.4307851
  27.1245316  91.6626105  61.5393970  27.2537697  91.9160584  62.4533381
  26.4442767  92.2553813  61.2198625  31.2944803 102.3323355  57.6384444
  31.2168833 103.2831180  57.7172924  30.6906446 101.9869227  58.2959370
  33.7862033  89.5051220  70.2945811  33.0095367  90.0645141  70.2848675
  34.4252596  89.9908003  70.8160681  41.5782813  86.2878013  64.1288787
  40.9357193  86.5810546  63.4828582  41.0737742  86.1730934  64.9341984
  39.2322977  90.0341186  54.8174647  40.1440833  90.2668573  54.6422344
  38.7232624  90.6178231  54.2549725  32.0408405  92.3136674  69.8563778
  32.7823089  92.8521718  69.5798601  31.3345390  92.9402962  70.0135329
  37.5163745  94.4565814  68.4535939  37.9247101  94.0148225  67.7090571
  36.7941006  93.8818442  68.7070132  33.8694815  89.3938421  65.8269496
  34.7156010  89.8177835  65.9704145  33.8093452  88.7372045  66.5208059
  37.8392559  95.0167005  62.2088228  37.2101422  95.1812719  61.5064296
  37.4518221  95.4308614  62.9799192  41.7181791  95.9521443  59.5632592
  41.0332829  96.3320344  59.0129625  41.8025640  96.5616769  60.2964539
  37.0194260  87.0542789  67.4850670  36.7755192  87.8084850  66.9484945
  37.2954190  87.4328137  68.3197917  38.9732723  93.5981402  66.1627935
  39.1849618  94.2413162  65.4862316  38.9262471  92.7643718  65.6949865
  36.5758952  86.2099222  63.0664507  35.7143431  86.5080476  63.3581245
  36.6021386  86.4269621  62.1345540  33.3920521  94.7541413  59.4738313
  33.8558867  95.0329116  58.6842936  33.1277319  93.8524857  59.2911404
  30.2844602  94.3012894  62.4118076  30.8545959  94.7300163  61.7735561
  30.8752714  94.0195479  63.1102262  32.3289407  90.8764565  56.2827878
  33.0313450  91.3285609  56.7501805  31.9970036  90.2348384  56.9107771
  30.7769769  89.4676322  70.6579088  30.1468429  90.1492603  70.8914484
  30.6705857  89.3559404  69.7132226  26.0714741  89.1348118  61.5845012
  25.2813795  89.3905646  61.1085122  26.5625988  89.9496456  61.6897052
  40.0878551  96.4753357  64.3350293  40.9095994  96.0733544  64.0532974
  40.0840954  96.3721591  65.2866408  28.0229486  89.4992697  58.5428488
  27.2260650  89.6111391  59.0611984  27.7955079  89.8379349  57.6769379
  33.8535154  96.0237400  66.4911003  33.9179587  96.4857808  67.3269175
  33.1446078  95.3934765  66.6193313  24.3552444  89.3878608  64.0160003
  24.6060483  90.2725618  64.2817579  24.8911992  89.2083210  63.2435094
  48.1784544  92.8192106  60.6835264  47.4248252  92.2499504  60.5279269
  48.3132085  92.7854770  61.6305899  33.5683172  97.6905508  56.3589983
  33.4328847  98.5357044  56.7874831  34.1092984  97.8924786  55.5955917
  27.0212569  95.2080946  56.9317909  27.5337090  96.0024196  57.0823473
  27.6735282  94.5107236  56.8651510  28.8307454  98.3246702  59.0140662
  29.0074082  99.2464667  58.8261646  29.6264287  98.0105121  59.4435041
  32.9718472  85.1854967  70.6124595  33.7128186  85.7862120  70.5329058
  33.2036395  84.4432605  70.0542638  28.1159810  90.3711334  68.8902825
  28.0013326  89.4696591  69.1909924  27.2604328  90.6175031  68.5387641
  35.1951648  98.3129074  70.4890326  34.7515502  97.5265453  70.1711230
  35.8568862  98.5008225  69.8234216  29.9538769  99.8424876  65.0151004
  30.5046194  99.7141939  64.2427998  29.1150245 100.1419765  64.6645897
  37.2932886  98.5931874  68.5171727  37.2751362  99.4140755  68.0251996
  38.2152806  98.4685950  68.7421868  33.7505940  96.1076004  69.3595235
  34.2834277  95.3464292  69.1294543  33.2220021  95.8149656  70.1019390
  24.9861486  93.5369600  57.7077479  25.8236708  93.9466609  57.4911187
  25.1639754  92.5969042  57.6777673  36.8825918  91.2044681  53.3961312
  36.3672542  91.9749286  53.6349699  36.6103227  90.5309817  54.0194373
  34.4673029  86.0494382  58.4546550  33.6114625  85.6601232  58.2752189
  34.8799981  86.1286342  57.5946336  32.2415062  83.6679455  61.8604292
  33.1068058  83.4722263  61.5010181  32.3092571  83.4389806  62.7873649
  41.8560192  93.9577036  55.3314485  41.0789635  93.6188195  54.8869648
  42.5351673  93.9629659  54.6569451  36.6712221  89.0771773  55.2221093
  36.3662357  89.3917922  56.0731236  37.6242663  89.1553193  55.2648426
  35.1158653  95.2361996  56.8714047  34.5880015  94.5014756  56.5587285
  34.6146156  96.0136673  56.6254016  40.0951499  93.4311017  61.9881093
  39.4375174  94.1210278  62.0761222  40.8991898  93.8207449  62.3315080
  29.8477381  85.8981663  59.2320659  30.4221133  85.6756844  58.4993852
  30.4348363  85.9670357  59.9849260  38.9056958  91.7855389  60.0385035
  39.4188840  92.4185381  60.5406745  39.5558182  91.1856585  59.6728395
  30.1746968  87.9286124  53.2516544  29.3384280  88.2660810  53.5725819
  30.0351737  87.7935103  52.3143681  32.1500048  82.7722911  57.9595728
  31.4964461  82.4571929  57.3352343  32.1080523  82.1498652  58.6855551
  33.2611253  93.0542207  49.8749020  32.3538315  92.8231460  50.0740169
  33.7582285  92.2579826  50.0623002  36.1679332 101.7639714  52.7945706
  35.4941031 102.0671411  53.4030664  36.5545154 102.5668794  52.4451163
  35.3837789  89.2604845  62.2843376  34.4660350  89.4819792  62.1265064
  35.7997932  89.3351156  61.4255083  36.1672837  90.6596261  57.4146056
  36.9144655  91.1717658  57.1053178  36.4364426  90.3380313  58.2750450
  34.4399487  93.1554801  54.3973010  33.5310706  92.8713834  54.4945480
  34.4694571  93.5753880  53.5376317  39.6718754  96.7661391  58.1664178
  39.2181081  95.9252301  58.2229368  39.0412721  97.4022789  58.5038958
  38.6151674  87.6953377  59.3964845  37.8774430  87.1830763  59.7275088
  38.8678447  87.2553759  58.5848122  38.1151693  98.6037888  59.1013996
  38.4074668  99.1642945  58.3826362  38.6250314  98.8966449  59.8567155
  38.7163301  80.4729629  59.9906615  39.0222178  79.6126992  59.7032530
  39.4415906  81.0647249  59.7905608  25.0087657  90.8760316  58.3788213
  24.8112057  90.2829676  57.6539279  24.4534321  90.5712526  59.0964151
  32.9884381  90.7683422  60.4982806  33.0432991  89.8157258  60.4225282
  32.1775583  90.9242861  60.9824104  34.1375575  94.6963545  51.7361089
  33.6995004  93.9799404  51.2766726  34.8786015  94.9239660  51.1746180
  30.9276741  89.3860482  58.2573185  30.1144606  89.6854652  58.6638377
  31.4235735  88.9916171  58.9747667  33.0785319  99.3818239  60.1907449
  33.0361497  99.6079085  59.2615981  33.9948017  99.1481613  60.3393250
  36.5250952  89.8502306  67.0888078  36.8800340  90.0773779  67.9482544
  37.1723084  90.1820683  66.4665334  42.2548689  92.9720742  57.7937407
  42.1166588  93.1622338  56.8658597  41.8984908  93.7340125  58.2505459
  30.4190815  86.9578837  63.8734419  31.0590195  86.8167596  63.1757383
  29.5868346  86.6713351  63.4973021  42.2818069  95.0397269  62.8048679
  42.7154576  94.9472558  63.6531733  42.9949650  95.0154770  62.1668695
  31.1951119  96.2581268  59.9869412  31.9891718  95.7631588  59.7851987
  30.4842812  95.7299131  59.6237117  36.0145964  98.6399363  64.3381780
  36.0682986  99.2090300  65.1059495  35.1460745  98.8101248  63.9735817
  27.5033883  90.4024349  56.0629165  26.5731471  90.3408805  56.2799127
  27.5991355  89.8800302  55.2665806  27.4219432  86.9279162  58.6507406
  27.6826249  87.8424496  58.5416567  28.2436604  86.4603605  58.8004019
  28.8944357  88.3416919  65.8206231  29.5667411  88.1334282  65.1718880
  28.0674144  88.1439005  65.3811463  43.1433618  95.0820970  65.3381564
  43.3369509  95.9866780  65.5840839  43.0434237  94.6228389  66.1720149
  34.7969929  84.9678860  67.8371892  34.1497844  85.6668810  67.7436368
  35.5670945  85.4015004  68.2048140  38.2048727  95.2327713  70.9122445
  38.0534234  95.0038264  69.9952529  38.1953407  96.1898314  70.9253790
  34.9734064  92.8059625  65.8968711  35.9026124  92.9570785  65.7237679
  34.5525094  92.8943646  65.0417358  33.7722395  96.8310290  63.6667249
  33.6333481  96.4629074  64.5393187  32.9836992  97.3457929  63.4951207
  34.3670547 101.9319386  55.0092786  34.5422303 101.4607429  55.8238408
  33.6803335 102.5585152  55.2374046  35.3227610  96.2091892  61.0556087
  34.9877443  96.1692662  61.9513737  34.8231556  95.5436608  60.5826497
  29.2971854  91.6159522  66.5808668  29.1591652  90.8839761  67.1820207
  30.2076778  91.5268423  66.2992856  38.2586802  93.5547927  51.3293146
  37.6415973  92.8294755  51.2326199  37.7903291  94.3157287  50.9860221
  31.9254155  91.3279482  66.0692348  32.6353774  90.6872674  66.0278966
  31.8823463  91.5792377  66.9918528  39.9140934  98.2646835  68.9898927
  39.8553480  97.5806055  68.3229510  40.3160452  99.0065825  68.5379553
  30.6383089  88.3144700  67.8887987  30.1020446  87.8635438  68.5409583
  30.0499798  88.4490608  67.1458451  28.9331633 105.0808749  61.7832646
  29.1728231 105.7127273  62.4611664  28.0900829 104.7296789  62.0698005
  30.0485348  87.7733351  50.4514451  29.1714814  87.6522152  50.0876697
  30.5243101  86.9819429  50.1993339  39.9158341  96.2286419  67.2212906
  39.0285120  95.8912341  67.3439305  40.4856892  95.4969450  67.4581672
  21.5687488  92.5610511  60.5455958  22.2558528  92.2472241  59.9576973
  21.4135617  93.4651875  60.2723209  26.3722210  87.4500707  64.9740982
  26.2880399  86.8426377  64.2391392  25.5504917  87.9409726  64.9750478
  33.4459494 100.8887871  64.1874150  33.3729666 101.6942843  64.6993454
  33.0036888 101.0879837  63.3622171  33.2349274 100.1259641  57.6976971
  32.4516796 100.6681322  57.7915196  33.9342019 100.6433621  58.0971212
  36.5445924  85.9354271  60.3411177  37.0414624  85.1824233  60.0212247
  35.7732906  85.9718588  59.7754386  44.3975682  91.6394636  61.9829468
  44.3865558  92.5219352  61.6123401  43.5293061  91.2866187  61.7884005
  35.9058178 100.7874705  66.3432308  36.6186150 101.4222170  66.2708210
  35.4148207 100.8838571  65.5272310  37.6275705  94.6925958  57.9149600
  36.6931984  94.8127421  57.7454304  37.8052373  93.7898425  57.6509610
  33.1280893  88.0771654  60.0682861  32.7578680  87.5242694  60.7563767
  33.6239985  87.4729787  59.5157861  41.0148256  90.5343277  58.4499634
  41.4808708  91.3671269  58.3759937  41.4655757  90.0688259  59.1544893
  30.9570091  98.5369149  67.1637879  31.6579551  99.1705632  67.3167273
  30.4865206  98.8783880  66.4033518  39.0824487  96.8787099  55.4485786
  39.3584331  96.7643693  56.3579660  38.2128986  96.4804584  55.4097959
  38.7571377  91.0913756  64.9890430  38.1042828  91.3389664  64.3342882
  39.1351757  90.2777895  64.6552907  35.7178551 101.1273450  59.0918600
  35.9000946 100.3095105  59.5546352  36.5411537 101.3441142  58.6543490
  36.0520717 100.0541635  56.3533648  36.5808483  99.5434089  55.7403810
  36.3148936  99.7384165  57.2179181  34.8058950  91.8333567  71.4756467
  34.1299588  91.7327697  72.1458842  35.6286584  91.6772781  71.9392464
  26.5537810  98.0705504  64.0968982  27.1391246  97.3249192  64.2296886
  26.3562648  98.3809461  64.9805646  29.4076465 101.1056751  59.1131424
  28.7386840 101.5902879  58.6295464  29.2689334 101.3525972  60.0274803
  21.1455464  90.6411104  62.8173425  21.1839564  90.1074695  63.6110543
  20.6395757  90.1146310  62.1984402  33.5481733 103.1400495  65.7114083
  34.1000041 103.3032116  66.4763168  33.8887927 103.7304933  65.0394107
  28.5246227  85.4875645  66.3135967  28.5887553  86.3490476  65.9013365
  28.4613347  84.8749646  65.5808326  27.9998499  87.5598777  69.9609002
  28.6270538  87.1775855  70.5746526  27.1426418  87.3412979  70.3264694
  38.3992608  97.9661752  71.5662737  38.9432512  98.5791711  71.0717692
  37.8179453  98.5241331  72.0829750  24.7764042  89.3675206  55.8927356
  25.0717483  88.4585885  55.8394410  23.8752078  89.3462946  55.5708359
  36.6850121 101.0882470  62.6977765  36.5601260 100.2872210  62.1888710
  37.3429212 101.5828664  62.2091735  28.3058289  87.4431203  61.8754905
  27.5844875  88.0567171  61.7362378  29.0951545  87.9788968  61.7971551
  38.7485029  98.8891490  64.3257315  37.8015365  98.7696842  64.2535642
  39.0967802  98.0013988  64.4083576  31.1084602  84.7785629  68.1495557
  31.6319004  85.0247926  68.9121866  30.8896936  85.6105664  67.7298694
  26.5051883  87.0489304  56.0166682  26.1764590  86.1686683  55.8341787
  26.8591254  86.9936973  56.9043071  35.7531462  98.6844207  60.5261667
  35.6056425  97.7560914  60.7069237  36.5784956  98.7064297  60.0418742
  29.6193707  87.3362274  56.3842159  29.9589779  87.8648195  55.6620768
  30.0665827  87.6742680  57.1600726  39.3565584  99.5072765  61.6126540
  40.2812132  99.3015627  61.4750991  39.1880888  99.2589167  62.5215881
  32.3137147  85.7199324  65.8345227  31.9733968  84.9207138  66.2365907
  31.6076154  86.0201035  65.2622060  31.6061854  85.8336895  54.5835452
  32.3270216  86.2118148  54.0799169  30.9827158  86.5525772  54.6870430
  35.7492977  86.5382044  55.5193784  35.9656591  87.4206682  55.2182612
  35.2687044  86.1468258  54.7899426  30.4892198  89.4967758  62.0964529
  30.3436779  89.8108061  62.9888810  30.0117402  90.1152658  61.5435428
  32.3488581  86.4870306  62.1445418  32.3350150  85.5911399  61.8077716
  33.0661009  86.4940969  62.7783705  34.2014712  86.9207646  64.1898546
  33.9432489  87.8424716  64.1882876  33.6699752  86.5238080  64.8799010
  39.1460900 100.0258433  56.9688631  39.3197778  99.4604855  56.2162484
  39.6389792 100.8259328  56.7868121  24.9637860  92.0373102  65.0352190
  24.4191328  92.8132910  65.1672464  25.8417210  92.3843906  64.8771312
  31.7525477  85.3684686  57.4132989  31.8741388  84.4401332  57.6123876
  31.4627519  85.3823372  56.5011304  45.0000292  92.7894856  58.5878931
  45.4431438  92.0402181  58.1898054  44.1226802  92.7804992  58.2052663
  40.1336073  99.3425197  54.0685530  40.8286977  99.9631890  54.2872844
  40.4759223  98.4920548  54.3437907  25.7503882  91.1642998  67.9282347
  25.0085618  91.3125634  68.5146977  25.4296626  91.4251264  67.0649096
  42.0327496  96.7924903  55.5972860  42.5578820  97.1312176  54.8722180
  41.9449849  95.8571918  55.4135995  33.6947545 100.7058976  67.7262737
  34.0034671 100.4608123  68.5985437  34.4923027 100.9105615  67.2381607
  33.7168157 102.8596886  59.9568114  33.2773147 102.3673265  60.6500970
  34.4676274 102.3169854  59.7160189  26.1960496  99.0508427  59.9592742
  27.0218516  98.7512199  59.5791385  25.8454548  98.2816049  60.4082530
  31.1642029  98.4034895  62.0290415  30.5422038  97.7405600  61.7292643
  31.8346896  98.4296027  61.3464063  24.3969101  96.9694753  60.9181675
  23.5601009  96.5416928  60.7365676  24.3692746  97.1627197  61.8552466
  31.2366556  86.8816683  71.6222921  31.2854712  87.7578806  71.2400691
  31.7789071  86.3394076  71.0494564  41.7221402  97.4257806  70.9024058
  40.9316946  97.4081945  70.3628558  41.4854757  97.9646100  71.6573095
  41.8419277  94.2750273  68.2156787  41.8917282  94.1100280  69.1572310
  41.7333200  93.4077532  67.8254668  30.7255536  96.9538818  55.5048876
  30.8743656  97.6374283  54.8515548  31.5321979  96.9343909  56.0198331
  39.1323040  90.2581201  69.5316094  40.0332902  90.1187666  69.2400091
  39.2071014  90.4235656  70.4714271  33.4665845  87.6348056  68.3769280
  32.5969154  87.9281622  68.1051868  33.7025325  88.2188501  69.0976543
  43.3437474  96.6947214  68.4598808  43.0522282  97.0577195  69.2962269
  42.7309605  95.9814223  68.2812140  44.5433156  94.2600094  60.9801379
  45.3780048  94.6989898  61.1438939  44.6792285  93.7838747  60.1609624
  41.5924662  91.8179829  66.9278866  42.0678784  92.0107475  66.1197718
  40.6690228  91.8739015  66.6822250  28.4808169  92.9803996  56.5109945
  28.2354211  92.0766326  56.7090155  28.6504083  92.9821147  55.5689423
  27.7503816  88.7132354  54.0096106  27.0573061  88.7876709  53.3536142
  27.5055568  87.9492697  54.5317623  34.2250941  99.4486949  52.9760623
  33.6524908 100.0677136  52.5231095  34.7983735  99.9986311  53.5100545
  40.2926331  88.6945589  65.1607172  41.2443754  88.7943687  65.1819396
  40.1229782  87.9023858  65.6705256  38.3140711  85.7801172  65.3466573
  37.7190643  86.0606185  64.6513062  38.0290407  86.2695073  66.1183314
  37.4448201  99.7324099  54.1069205  38.3778874  99.6669661  54.3102081
  37.3571414 100.5680366  53.6483738  40.0736218  99.0489969  51.0673153
  39.9949849  98.7149833  51.9608911  40.8945885  99.5411737  51.0664625
  42.7714409  91.9151709  64.2749472  42.7390729  90.9767709  64.4609155
  43.3815033  91.9935745  63.5415296  34.6097740  90.7847762  50.3176676
  35.5556845  90.6553970  50.3865094  34.2311985  90.0462424  50.7946104
  42.9208897  88.7062752  64.3207755  42.4047946  87.9221209  64.1337684
  43.8048846  88.3781469  64.4854274  40.5819624  82.4503768  60.2803567
  40.3844446  82.1418856  61.1646899  41.1919330  83.1765407  60.4101497
  48.5890959  92.9767716  63.4155508  49.3194347  92.7153004  63.9763212
  47.9797904  92.2396438  63.4557576  46.6706256  91.1175578  64.0129960
  45.9439420  90.9831543  63.4046451  46.2553543  91.4252407  64.8186678
  34.4936432  94.8365508  71.7777333  35.4139442  95.0144107  71.9717379
  34.4586015  93.8921553  71.6257032  32.7940657  88.7097738  50.2531561
  31.8872112  88.4130851  50.3294274  33.0716638  88.4127556  49.3865847
  23.7118597  90.0304101  60.7030607  23.3921382  89.1769410  60.4104981
  23.1652026  90.2452680  61.4588575  27.4898505  92.7466542  64.4200114
  27.7084515  93.6783650  64.4388148  27.9024279  92.3874517  65.2054918
  34.4102723  83.2534628  56.4075802  33.6003451  82.9081713  56.7831048
  35.0987140  82.9442172  56.9963414  36.3393271  82.3312675  58.0300099
  36.8924310  82.7508128  58.6890122  36.5763357  81.4048423  58.0723055
  32.3626370  88.3199748  73.8102863  32.2623097  89.2694105  73.7414954
  32.1447912  87.9917987  72.9378933  31.5639442  85.5684673  50.3943540
  32.4258606  85.8939572  50.6539357  31.7489786  84.7816169  49.8816606
  23.5806857  93.6507013  62.6723729  22.8870329  93.2360966  62.1593683
  24.3279848  93.6927549  62.0757148  39.7172078  84.4413200  57.5378763
  39.1370747  85.0998004  57.1556815  39.4508011  83.6190544  57.1266181
  38.1675644  83.8418257  59.7400083  38.6675423  83.9534792  58.9314402
  38.8111252  83.5379310  60.3800892  32.2257640  91.7496887  72.6267924
  31.7424722  92.5497247  72.8331813  32.3118579  91.7604832  71.6735368
  25.4943600  93.5825267  60.5489744  25.4714288  93.6812954  59.5971627
  25.8044236  94.4290418  60.8706910  28.1530978  95.6401422  64.6636358
  29.1074231  95.6085364  64.5966290  27.9543501  95.1792046  65.4786584
  28.7430360  94.2102538  67.2307156  29.5623249  94.7046617  67.2541993
  29.0167168  93.2934506  67.2024723  38.4996956  86.6013290  56.5935111
  37.6122811  86.8862941  56.3755306  38.9150945  86.4407054  55.7462388
  41.8511492  86.6259811  60.3089451  42.6271882  87.1156264  60.5814067
  41.1259626  87.0517865  60.7661320  44.2884051  87.3387430  61.3663391
  44.8828542  87.0983166  60.6556699  44.3610635  86.6194561  61.9936927
  26.5081207 101.1821041  61.6806556  26.3735674 100.4221442  61.1144554
  26.0913269 101.9061941  61.2135345  37.6440170  96.3657965  50.6883131
  38.3476020  96.5707967  51.3040787  36.9202818  96.9334727  50.9532215
  38.4737980  92.1167826  56.8085401  38.4173181  92.5736378  55.9693034
  39.0266322  91.3558511  56.6308244  42.2842786  87.9057558  57.6335521
  42.0279720  87.5054194  58.4643729  41.6595654  88.6201352  57.5085660
  46.5955124  90.6453631  60.1406812  46.0354682  90.7146821  60.9138374
  45.9898627  90.4694616  59.4206309  29.6650332 102.0790358  61.8924999
  29.5482717 103.0235791  61.7903689  28.8442779 101.7763920  62.2810798
  39.5526867  96.8040494  52.7381591  40.3872471  96.3721692  52.5559066
  39.3911210  96.6322508  53.6658486  39.2072759  93.3072607  54.1037931
  39.1521563  93.1416879  53.1626375  38.5818814  94.0148640  54.2600120
  23.9965274  88.5440672  67.9299353  24.6424138  88.0339626  68.4186578
  23.7882425  89.2809353  68.5042778  36.5218666  95.6121519  73.4291493
  37.3909826  95.7862171  73.0678128  36.0425418  96.4315936  73.3067223
  32.5168885  82.8080716  53.6823249  32.5047554  83.7522556  53.8391520
  33.4092306  82.6250862  53.3882710  30.6904847 102.7318620  65.1080927
  31.5932093 102.7642230  65.4247422  30.4642217 101.8019071  65.1227263
  32.4458449 101.4849607  61.7691006  31.4954080 101.4851468  61.6555378
  32.7490935 100.7382341  61.2527040  28.3362765  85.6908289  72.0274367
  29.1994227  85.3345094  72.2377692  27.7628176  85.3522184  72.7149771
  48.1811142 107.3210145  62.8336768  48.8189552 107.2016892  62.1300108
  48.0631985 108.2690989  62.8924720  44.9900848 107.2737573  62.7698293
  44.6519360 107.1578638  61.8818828  45.8590617 106.8728738  62.7499299
  40.8487664 109.1273050  58.7595184  40.2852529 109.0362987  57.9911472
  40.7340059 108.3072954  59.2397676  45.4720631 108.4272425  68.7284498
  45.4609272 108.0325223  67.8565002  45.6341271 107.6938498  69.3218270
  38.3952096 110.6224241  61.5979404  39.1873388 110.2815066  61.1825704
  38.6348746 110.7319216  62.5181558  46.4287223 112.7944017  54.0709649
  45.7775203 113.3798098  53.6843662  47.2231586 113.3250212  54.1304686
  40.3542850 109.8833154  54.4696783  41.1273726 109.3362142  54.3309659
  40.7068249 110.7477404  54.6811244  42.1927892 111.2109537  67.6763682
  41.9017758 112.1155168  67.5610349  42.8284877 111.2526064  68.3907752
  43.1184099 108.5886385  64.2665042  43.7147672 108.3642408  63.5522005
  43.1759071 107.8471131  64.8690490  42.6909128 106.0425821  52.1015233
  42.9434648 105.5207342  51.3398696  41.7533687 105.8791966  52.2041917
  47.7352411 105.0461599  59.9089976  48.5215500 104.6281022  59.5580393
  47.9991115 105.9507691  60.0771625  47.9062488 110.4834449  54.6078633
  47.2708321 110.5569076  55.3199538  47.5759894 111.0728048  53.9297712
  53.1360838 104.9836832  60.8122955  53.8686010 104.4136049  61.0460784
  52.3800193 104.5958433  61.2529460  42.4105416 107.9453927  54.3039608
  42.2941675 107.2698830  54.9720692  42.5207676 107.4586301  53.4871761
  44.7536957 107.4064074  58.0086297  44.3895165 106.8794695  58.7199219
  45.6104073 107.0162543  57.8352783  50.6586258  98.6958406  65.2717563
  50.3269583  99.5653817  65.0478778  50.0631871  98.3794690  65.9511594
  44.3942444 102.4353973  53.0047646  44.5616847 103.3034210  53.3718117
  44.2039613 102.5981255  52.0808935  47.1517778 110.8970952  64.6713476
  46.8518501 111.7995991  64.5629283  46.8068837 110.6303135  65.5234629
  40.6030259 107.3484749  60.7050180  39.6780756 107.2160963  60.9127872
  40.8514672 108.1278968  61.2020123  50.5514921 103.4153492  62.3510913
  49.6431799 103.3468901  62.0569674  50.5002517 103.8925437  63.1792739
  44.3731665 104.8911631  53.9894312  44.2531290 105.3368682  54.8279793
  43.6784254 105.2396949  53.4307851  37.9639070 106.9918023  61.5393970
  38.0931451 107.2452502  62.4533381  37.2836521 107.5845731  61.2198625
  42.1338557 117.6615273  57.6384444  42.0562587 118.6123098  57.7172924
  41.5300201 117.3161145  58.2959370  44.6255787 104.8343138  70.2945811
  43.8489121 105.3937058  70.2848675  45.2646350 105.3199921  70.8160681
  52.4176568 101.6169931  64.1288787  51.7750948 101.9102464  63.4828582
  51.9131496 101.5022851  64.9341984  50.0716731 105.3633104  54.8174647
  50.9834588 105.5960491  54.6422344  49.5626378 105.9470148  54.2549725
  42.8802159 107.6428591  69.8563778  43.6216844 108.1813635  69.5798601
  42.1739145 108.2694880  70.0135329  48.3557499 109.7857732  68.4535939
  48.7640855 109.3440142  67.7090571  47.6334761 109.2110359  68.7070132
  44.7088569 104.7230339  65.8269496  45.5549764 105.1469752  65.9704145
  44.6487207 104.0663963  66.5208059  48.6786314 110.3458922  62.2088228
  48.0495176 110.5104637  61.5064296  48.2911976 110.7600532  62.9799192
  52.5575546 111.2813360  59.5632592  51.8726584 111.6612262  59.0129625
  52.6419395 111.8908687  60.2964539  47.8588014 102.3834707  67.4850670
  47.6148946 103.1376768  66.9484945  48.1347945 102.7620055  68.3197917
  49.8126477 108.9273319  66.1627935  50.0243372 109.5705079  65.4862316
  49.7656225 108.0935636  65.6949865  47.4152706 101.5391140  63.0664507
  46.5537185 101.8372394  63.3581245  47.4415141 101.7561539  62.1345540
  44.2314276 110.0833331  59.4738313  44.6952621 110.3621034  58.6842936
  43.9671074 109.1816775  59.2911404  41.1238357 109.6304812  62.4118076
  41.6939714 110.0592080  61.7735561  41.7146469 109.3487397  63.1102262
  43.1683162 106.2056483  56.2827878  43.8707205 106.6577527  56.7501805
  42.8363790 105.5640302  56.9107771  41.6163523 104.7968240  70.6579088
  40.9862184 105.4784520  70.8914484  41.5099611 104.6851321  69.7132226
  36.9108496 104.4640036  61.5845012  36.1207550 104.7197564  61.1085122
  37.4019743 105.2788373  61.6897052  50.9272305 111.8045275  64.3350293
  51.7489749 111.4025462  64.0532974  50.9234708 111.7013509  65.2866408
  38.8623241 104.8284615  58.5428488  38.0654404 104.9403309  59.0611984
  38.6348833 105.1671267  57.6769379  44.6928909 111.3529318  66.4911003
  44.7573341 111.8149725  67.3269175  43.9839832 110.7226683  66.6193313
  35.1946199 104.7170526  64.0160003  35.4454237 105.6017536  64.2817579
  35.7305747 104.5375128  63.2435094  59.0178298 108.1484023  60.6835264
  58.2642007 107.5791421  60.5279269  59.1525839 108.1146688  61.6305899
  44.4076926 113.0197426  56.3589983  44.2722601 113.8648961  56.7874831
  44.9486739 113.2216703  55.5955917  40.8944266  99.0989005  73.0204339
  40.5011211  98.5455204  73.6951983  41.7110406  99.4099584  73.4110856
  37.8606324 110.5372864  56.9317909  38.3730844 111.3316114  57.0823473
  38.5129036 109.8399154  56.8651510  39.6701208 113.6538620  59.0140662
  39.8467837 114.5756585  58.8261646  40.4658042 113.3397039  59.4435041
  43.8112227 100.5146885  70.6124595  44.5521940 101.1154038  70.5329058
  44.0430150  99.7724522  70.0542638  38.9553565 105.7003252  68.8902825
  38.8407080 104.7988509  69.1909924  38.0998083 105.9466949  68.5387641
  46.0345403 113.6420992  70.4890326  45.5909257 112.8557371  70.1711230
  46.6962616 113.8300143  69.8234216  40.7932524 115.1716794  65.0151004
  41.3439949 115.0433857  64.2427998  39.9544000 115.4711683  64.6645897
  48.1326641 113.9223792  68.5171727  48.1145116 114.7432673  68.0251996
  49.0546561 113.7977867  68.7421868  44.5899695 111.4367922  69.3595235
  45.1228032 110.6756210  69.1294543  44.0613776 111.1441573  70.1019390
  47.7569390  96.5427987  64.8888877  47.4133659  97.4329629  64.8127987
  48.1248352  96.3529645  64.0258462  35.8255240 108.8661518  57.7077479
  36.6630462 109.2758526  57.4911187  36.0033508 107.9260960  57.6777673
  47.7219673 106.5336599  53.3961312  47.2066296 107.3041203  53.6349699
  47.4496981 105.8601735  54.0194373  45.3066784 101.3786299  58.4546550
  44.4508380 100.9893150  58.2752189  45.7193735 101.4578260  57.5946336
  46.8365930  98.9132643  62.8538110  46.3330726  98.8762778  62.0405915
  47.1296537  99.8225385  62.9134767  43.0808816  98.9971372  61.8604292
  43.9461813  98.8014181  61.5010181  43.1486325  98.7681724  62.7873649
  52.6953947 109.2868953  55.3314485  51.9183389 108.9480113  54.8869648
  53.3745428 109.2921576  54.6569451  47.5105976 104.4063691  55.2221093
  47.2056111 104.7209840  56.0731236  48.4636418 104.4845111  55.2648426
  45.9552408 110.5653914  56.8714047  45.4273769 109.8306674  56.5587285
  45.4539910 111.3428590  56.6254016  50.9345254 108.7602934  61.9881093
  50.2768928 109.4502196  62.0761222  51.7385653 109.1499366  62.3315080
  40.6871135 101.2273580  59.2320659  41.2614887 101.0048762  58.4993852
  41.2742118 101.2962275  59.9849260  49.7450712 107.1147307  60.0385035
  50.2582594 107.7477299  60.5406745  50.3951936 106.5148503  59.6728395
  41.0140722 103.2578041  53.2516544  40.1778035 103.5952728  53.5725819
  40.8745492 103.1227021  52.3143681  42.9893803  98.1014829  57.9595728
  42.3358215  97.7863846  57.3352343  42.9474277  97.4790570  58.6855551
  44.1005008 108.3834124  49.8749020  43.1932069 108.1523378  50.0740169
  44.5976040 107.5871743  50.0623002  47.0073087 117.0931631  52.7945706
  46.3334785 117.3963328  53.4030664  47.3938909 117.8960712  52.4451163
  46.2231543 104.5896763  62.2843376  45.3054105 104.8111710  62.1265064
  46.6391687 104.6643073  61.4255083  47.0066591 105.9888178  57.4146056
  47.7538410 106.5009576  57.1053178  47.2758181 105.6672231  58.2750450
  45.2793241 108.4846719  54.3973010  44.3704460 108.2005752  54.4945480
  45.3088325 108.9045798  53.5376317  50.5112509 112.0953309  58.1664178
  50.0574836 111.2544218  58.2229368  49.8806475 112.7314707  58.5038958
  49.4545428 103.0245295  59.3964845  48.7168185 102.5122681  59.7275088
  49.7072202 102.5845676  58.5848122  48.9545448 113.9329805  59.1013996
  49.2468422 114.4934862  58.3826362  49.4644068 114.2258366  59.8567155
  49.5557055  95.8021547  59.9906615  49.8615932  94.9418910  59.7032530
  50.2809660  96.3939167  59.7905608  35.8481412 106.2052233  58.3788213
  35.6505811 105.6121594  57.6539279  35.2928076 105.9004443  59.0964151
  43.8278135 106.0975340  60.4982806  43.8826745 105.1449176  60.4225282
  43.0169337 106.2534779  60.9824104  44.9769329 110.0255463  51.7361089
  44.5388759 109.3091322  51.2766726  45.7179770 110.2531578  51.1746180
  41.7670495 104.7152399  58.2573185  40.9538361 105.0146570  58.6638377
  42.2629489 104.3208088  58.9747667  43.9179073 114.7110156  60.1907449
  43.8755252 114.9371003  59.2615981  44.8341772 114.4773531  60.3393250
  47.3644707 105.1794224  67.0888078  47.7194095 105.4065697  67.9482544
  48.0116838 105.5112601  66.4665334  53.0942444 108.3012660  57.7937407
  52.9560342 108.4914256  56.8658597  52.7378663 109.0632043  58.2505459
  41.2584570 102.2870755  63.8734419  41.8983949 102.1459514  63.1757383
  40.4262100 102.0005268  63.4973021  53.1211823 110.3689187  62.8048679
  53.5548330 110.2764476  63.6531733  53.8343404 110.3446687  62.1668695
  42.0344874 111.5873185  59.9869412  42.8285472 111.0923506  59.7851987
  41.3236566 111.0591049  59.6237117  46.8539718 113.9691281  64.3381780
  46.9076741 114.5382217  65.1059495  45.9854500 114.1393166  63.9735817
  38.3427637 105.7316267  56.0629165  37.4125225 105.6700723  56.2799127
  38.4385109 105.2092220  55.2665806  38.2613186 102.2571080  58.6507406
  38.5220004 103.1716413  58.5416567  39.0830359 101.7895523  58.8004019
  39.7338112 103.6708837  65.8206231  40.4061165 103.4626199  65.1718880
  38.9067898 103.4730923  65.3811463  53.9827373 110.4112887  65.3381564
  54.1763263 111.3158698  65.5840839  53.8827991 109.9520307  66.1720149
  45.6363684 100.2970778  67.8371892  44.9891599 100.9960728  67.7436368
  46.4064699 100.7306922  68.2048140  49.0442482 110.5619630  70.9122445
  48.8927988 110.3330182  69.9952529  49.0347161 111.5190232  70.9253790
  45.8127818 108.1351543  65.8968711  46.7419878 108.2862703  65.7237679
  45.3918848 108.2235564  65.0417358  44.6116150 112.1602207  63.6667249
  44.4727236 111.7920992  64.5393187  43.8230746 112.6749847  63.4951207
  45.2064302 117.2611304  55.0092786  45.3816057 116.7899347  55.8238408
  44.5197090 117.8877070  55.2374046  46.1621365 111.5383810  61.0556087
  45.8271198 111.4984580  61.9513737  45.6625311 110.8728526  60.5826497
  40.1365609 106.9451440  66.5808668  39.9985407 106.2131679  67.1820207
  41.0470532 106.8560340  66.2992856  49.0980557 108.8839844  51.3293146
  48.4809727 108.1586673  51.2326199  48.6297045 109.6449205  50.9860221
  42.7647910 106.6571399  66.0692348  43.4747528 106.0164592  66.0278966
  42.7217218 106.9084294  66.9918528  50.7534688 113.5938753  68.9898927
  50.6947234 112.9097973  68.3229510  51.1554207 114.3357743  68.5379553
  41.4776844 103.6436617  67.8887987  40.9414201 103.1927356  68.5409583
  40.8893552 103.7782526  67.1458451  40.8879103 103.1025269  50.4514451
  40.0108569 102.9814070  50.0876697  41.3636856 102.3111347  50.1993339
  50.7552096 111.5578337  67.2212906  49.8678874 111.2204259  67.3439305
  51.3250647 110.8261368  67.4581672  32.4081243 107.8902428  60.5455958
  33.0952282 107.5764158  59.9576973  32.2529371 108.7943793  60.2723209
  37.2115965 102.7792625  64.9740982  37.1274154 102.1718295  64.2391392
  36.3898671 103.2701643  64.9750478  44.2853249 116.2179789  64.1874150
  44.2123420 117.0234761  64.6993454  43.8430642 116.4171755  63.3622171
  44.0743029 115.4551559  57.6976971  43.2910550 115.9973239  57.7915196
  44.7735774 115.9725539  58.0971212  47.3839679 101.2646189  60.3411177
  47.8808378 100.5116151  60.0212247  46.6126660 101.3010505  59.7754386
  55.2369436 106.9686554  61.9829468  55.2259312 107.8511270  61.6123401
  54.3686816 106.6158105  61.7884005  46.7451932 116.1166623  66.3432308
  47.4579905 116.7514088  66.2708210  46.2541961 116.2130489  65.5272310
  48.4669459 110.0217876  57.9149600  47.5325738 110.1419338  57.7454304
  48.6446128 109.1190343  57.6509610  43.9674647 103.4063572  60.0682861
  43.5972435 102.8534612  60.7563767  44.4633740 102.8021705  59.5157861
  51.8542011 105.8635195  58.4499634  52.3202463 106.6963187  58.3759937
  52.3049511 105.3980177  59.1544893  41.7963846 113.8661067  67.1637879
  42.4973305 114.4997550  67.3167273  41.3258961 114.2075798  66.4033518
  49.9218242 112.2079016  55.4485786  50.1978086 112.0935611  56.3579660
  49.0522741 111.8096501  55.4097959  49.8258673  98.2315782  62.4890536
  48.9121753  98.4620009  62.6572742  50.2551775  98.3154226  63.3404568
  49.5965132 106.4205674  64.9890430  48.9436582 106.6681581  64.3342882
  49.9745512 105.6069812  64.6552907  46.5572306 116.4565367  59.0918600
  46.7394700 115.6387023  59.5546352  47.3805292 116.6733059  58.6543490
  46.8914471 115.3833552  56.3533648  47.4202238 114.8726007  55.7403810
  47.1542691 115.0676083  57.2179181  45.6452705 107.1625485  71.4756467
  44.9693342 107.0619614  72.1458842  46.4680339 107.0064699  71.9392464
  37.3931564 113.3997422  64.0968982  37.9785001 112.6541110  64.2296886
  37.1956403 113.7101378  64.9805646  40.2470219 116.4348669  59.1131424
  39.5780595 116.9194797  58.6295464  40.1083089 116.6817889  60.0274803
  31.9849219 105.9703022  62.8173425  32.0233318 105.4366613  63.6110543
  31.4789512 105.4438227  62.1984402  44.3875488 118.4692413  65.7114083
  44.9393796 118.6324034  66.4763168  44.7281681 119.0596850  65.0394107
  39.3639981 100.8167562  66.3135967  39.4281308 101.6782393  65.9013365
  39.3007101 100.2041564  65.5808326  38.8392254 102.8890695  69.9609002
  39.4664292 102.5067772  70.5746526  37.9820172 102.6704897  70.3264694
  49.2386362 113.2953670  71.5662737  49.7826266 113.9083628  71.0717692
  48.6573207 113.8533248  72.0829750  35.6157796 104.6967124  55.8927356
  35.9111237 103.7877802  55.8394410  34.7145832 104.6754863  55.5708359
  47.5243875 116.4174388  62.6977765  47.3995015 115.6164128  62.1888710
  48.1822966 116.9120581  62.2091735  39.1452043 102.7723121  61.8754905
  38.4238629 103.3859088  61.7362378  39.9345299 103.3080885  61.7971551
  49.5878784 114.2183408  64.3257315  48.6409119 114.0988759  64.2535642
  49.9361557 113.3305906  64.4083576  41.9478357 100.1077547  68.1495557
  42.4712759 100.3539844  68.9121866  41.7290690 100.9397582  67.7298694
  37.3445638 102.3781222  56.0166682  37.0158344 101.4978601  55.8341787
  37.6985009 102.3228890  56.9043071  46.5925217 114.0136124  60.5261667
  46.4450179 113.0852832  60.7069237  47.4178710 114.0356215  60.0418742
  40.4587461 102.6654191  56.3842159  40.7983534 103.1940113  55.6620768
  40.9059582 103.0034598  57.1600726  50.1959339 114.8364683  61.6126540
  51.1205886 114.6307544  61.4750991  50.0274642 114.5881084  62.5215881
  43.1530902 101.0491242  65.8345227  42.8127722 100.2499055  66.2365907
  42.4469908 101.3492953  65.2622060  43.8047374  98.1340555  64.2872550
  44.6273443  97.6601033  64.1651441  44.0485437  98.9131038  64.7871237
  42.4455608 101.1628813  54.5835452  43.1663971 101.5410066  54.0799169
  41.8220912 101.8817690  54.6870430  46.5886731 101.8673962  55.5193784
  46.8050346 102.7498600  55.2182612  46.1080798 101.4760175  54.7899426
  41.3285953 104.8259675  62.0964529  41.1830533 105.1399978  62.9888810
  40.8511156 105.4444576  61.5435428  43.1882335 101.8162223  62.1445418
  43.1743904 100.9203317  61.8077716  43.9054764 101.8232887  62.7783705
  45.0408466 102.2499563  64.1898546  44.7826244 103.1716634  64.1882876
  44.5093506 101.8529998  64.8799010  49.9854655 115.3550351  56.9688631
  50.1591532 114.7896773  56.2162484  50.4783546 116.1551245  56.7868121
  35.8031615 107.3665020  65.0352190  35.2585083 108.1424828  65.1672464
  36.6810965 107.7135824  64.8771312  42.5919231 100.6976603  57.4132989
  42.7135143  99.7693250  57.6123876  42.3021274 100.7115289  56.5011304
  45.4610422  98.3831514  60.5499708  45.4832119  98.4470847  59.5951688
  45.8778481  97.5436023  60.7440215  55.8394046 108.1186773  58.5878931
  56.2825192 107.3694099  58.1898054  54.9620556 108.1096910  58.2052663
  50.9729827 114.6717115  54.0685530  51.6680732 115.2923808  54.2872844
  51.3152977 113.8212466  54.3437907  36.5897637 106.4934916  67.9282347
  35.8479373 106.6417551  68.5146977  36.2690381 106.7543181  67.0649096
  52.8721250 112.1216820  55.5972860  53.3972575 112.4604093  54.8722180
  52.7843603 111.1863836  55.4135995  44.5341299 116.0350894  67.7262737
  44.8428426 115.7900041  68.5985437  45.3316781 116.2397533  67.2381607
  44.5561911 118.1888804  59.9568114  44.1166902 117.6965182  60.6500970
  45.3070028 117.6461771  59.7160189  37.0354250 114.3800345  59.9592742
  37.8612270 114.0804116  59.5791385  36.6848302 113.6107967  60.4082530
  42.0035783 113.7326813  62.0290415  41.3815793 113.0697518  61.7292643
  42.6740650 113.7587945  61.3464063  35.2362855 112.2986671  60.9181675
  34.3994764 111.8708845  60.7365676  35.2086501 112.4919114  61.8552466
  42.0760311 102.2108601  71.6222921  42.1248466 103.0870724  71.2400691
  42.6182825 101.6685994  71.0494564  52.5615157 112.7549724  70.9024058
  51.7710700 112.7373863  70.3628558  52.3248511 113.2938018  71.6573095
  52.6813032 109.6042190  68.2156787  52.7311037 109.4392198  69.1572310
  52.5726955 108.7369449  67.8254668  41.5649290 112.2830736  55.5048876
  41.7137411 112.9666201  54.8515548  42.3715734 112.2635826  56.0198331
  49.9716794 105.5873118  69.5316094  50.8726657 105.4479583  69.2400091
  50.0464768 105.7527573  70.4714271  44.3059599 102.9639973  68.3769280
  43.4362909 103.2573539  68.1051868  44.5419080 103.5480418  69.0976543
  54.1831228 112.0239132  68.4598808  53.8916037 112.3869113  69.2962269
  53.5703360 111.3106140  68.2812140  55.3826911 109.5892012  60.9801379
  56.2173802 110.0281816  61.1438939  55.5186040 109.1130665  60.1609624
  52.4318417 107.1471747  66.9278866  52.9072538 107.3399393  66.1197718
  51.5083982 107.2030932  66.6822250  39.3201923 108.3095914  56.5109945
  39.0747965 107.4058244  56.7090155  39.4897838 108.3113064  55.5689423
  47.0098633  99.1819590  65.8934700  47.5280577  99.9180617  65.5681189
  46.6553766  99.4883583  66.7281459  38.5897571 104.0424271  54.0096106
  37.8966816 104.1168626  53.3536142  38.3449323 103.2784615  54.5317623
  47.2611227  95.6019873  61.4135597  47.5412981  94.9343062  62.0396023
  48.0461834  95.7948968  60.9010261  45.0644696 114.7778867  52.9760623
  44.4918663 115.3969054  52.5231095  45.6377489 115.3278228  53.5100545
  51.1320086 104.0237507  65.1607172  52.0837509 104.1235604  65.1819396
  50.9623536 103.2315775  65.6705256  49.1534465 101.1093090  65.3466573
  48.5584397 101.3898103  64.6513062  48.8684162 101.5986991  66.1183314
  48.2841956 115.0616017  54.1069205  49.2172629 114.9961578  54.3102081
  48.1965168 115.8972284  53.6483738  50.9129972 114.3781887  51.0673153
  50.8343604 114.0441751  51.9608911  51.7339639 114.8703655  51.0664625
  53.6108163 107.2443626  64.2749472  53.5784484 106.3059627  64.4609155
  54.2208787 107.3227663  63.5415296  45.4491494 106.1139679  50.3176676
  46.3950599 105.9845887  50.3865094  45.0705739 105.3754341  50.7946104
  53.7602652 104.0354670  64.3207755  53.2441701 103.2513126  64.1337684
  54.6442600 103.7073386  64.4854274  51.4213379  97.7795685  60.2803567
  51.2238200  97.4710774  61.1646899  52.0313084  98.5057324  60.4101497
  59.4284713 108.3059633  63.4155508  60.1588102 108.0444921  63.9763212
  58.8191659 107.5688355  63.4557576  57.5100010 106.4467496  64.0129960
  56.7833174 106.3123461  63.4046451  57.0947297 106.7544324  64.8186678
  45.3330187 110.1657425  71.7777333  46.2533196 110.3436025  71.9717379
  45.2979770 109.2213471  71.6257032  43.6334411 104.0389656  50.2531561
  42.7265867 103.7422768  50.3294274  43.9110392 103.7419474  49.3865847
  34.5512352 105.3596019  60.7030607  34.2315136 104.5061327  60.4104981
  34.0045780 105.5744597  61.4588575  38.3292259 108.0758460  64.4200114
  38.5478269 109.0075568  64.4388148  38.7418033 107.7166435  65.2054918
  45.2496477  98.5826545  56.4075802  44.4397206  98.2373630  56.7831048
  45.9380894  98.2734089  56.9963414  47.1787025  97.6604592  58.0300099
  47.7318064  98.0800046  58.6890122  47.4157112  96.7340340  58.0723055
  43.2020125 103.6491666  73.8102863  43.1016852 104.5986023  73.7414954
  42.9841667 103.3209905  72.9378933  42.4033196 100.8976591  50.3943540
  43.2652360 101.2231489  50.6539357  42.5883540 100.1108087  49.8816606
  34.4200612 108.9798931  62.6723729  33.7264083 108.5652883  62.1593683
  35.1673603 109.0219467  62.0757148  50.5565833  99.7705117  57.5378763
  49.9764502 100.4289921  57.1556815  50.2901765  98.9482462  57.1266181
  49.0069399  99.1710175  59.7400083  49.5069177  99.2826710  58.9314402
  49.6505007  98.8671228  60.3800892  43.0651395 107.0788805  72.6267924
  42.5818476 107.8789165  72.8331813  43.1512334 107.0896750  71.6735368
  36.3337354 108.9117184  60.5489744  36.3108042 109.0104872  59.5971627
  36.6437991 109.7582335  60.8706910  38.9924732 110.9693339  64.6636358
  39.9467986 110.9377282  64.5966290  38.7937256 110.5083963  65.4786584
  39.5824114 109.5394456  67.2307156  40.4017003 110.0338534  67.2541993
  39.8560922 108.6226424  67.2024723  49.3390711 101.9305208  56.5935111
  48.4516566 102.2154858  56.3755306  49.7544700 101.7698971  55.7462388
  52.6905247 101.9551729  60.3089451  53.4665637 102.4448181  60.5814067
  51.9653381 102.3809783  60.7661320  55.1277805 102.6679348  61.3663391
  55.7222296 102.4275084  60.6556699  55.2004389 101.9486479  61.9936927
  37.3474961 116.5112959  61.6806556  37.2129429 115.7513360  61.1144554
  36.9307023 117.2353859  61.2135345  48.4833924 111.6949882  50.6883131
  49.1869774 111.8999885  51.3040787  47.7596573 112.2626644  50.9532215
  49.3131734 107.4459744  56.8085401  49.2566936 107.9028295  55.9693034
  49.8660077 106.6850428  56.6308244  53.1236540 103.2349476  57.6335521
  52.8673474 102.8346111  58.4643729  52.4989408 103.9493270  57.5085660
  57.4348878 105.9745549  60.1406812  56.8748436 106.0438738  60.9138374
  56.8292381 105.7986533  59.4206309  40.5044087 117.4082276  61.8924999
  40.3876471 118.3527708  61.7903689  39.6836533 117.1055838  62.2810798
  50.3920621 112.1332412  52.7381591  51.2266225 111.7013610  52.5559066
  50.2304964 111.9614425  53.6658486  50.0466514 108.6364525  54.1037931
  49.9915317 108.4708796  53.1626375  49.4212569 109.3440558  54.2600120
  34.8359029 103.8732589  67.9299353  35.4817892 103.3631543  68.4186578
  34.6276180 104.6101271  68.5042778  47.3612421 110.9413437  73.4291493
  48.2303580 111.1154089  73.0678128  46.8819172 111.7607854  73.3067223
  43.3562639  98.1372634  53.6823249  43.3441309  99.0814474  53.8391520
  44.2486061  97.9542779  53.3882710  41.5298601 118.0610538  65.1080927
  42.4325848 118.0934148  65.4247422  41.3035971 117.1310989  65.1227263
  43.2852203 116.8141524  61.7691006  42.3347834 116.8143386  61.6555378
  43.5884689 116.0674259  61.2527040  47.1714759  94.7315411  57.9369186
  46.4047154  94.1773897  58.0825868  47.5825464  94.8037279  58.7983337
  39.1756520 101.0200206  72.0274367  40.0387981 100.6637011  72.2377692
  38.6021930 100.6814101  72.7149771  59.0204897 122.6502063  62.8336768
  59.6583306 122.5308810  62.1300108  58.9025739 123.5982907  62.8924720
  55.8294603 122.6029491  62.7698293  55.4913114 122.4870556  61.8818828
  56.6984371 122.2020656  62.7499299  56.3114386 123.7564343  68.7284498
  56.3003027 123.3617141  67.8565002  56.4735025 123.0230415  69.3218270
  53.5302882 121.3717738  52.1015233  53.7828403 120.8499260  51.3398696
  52.5927441 121.2083884  52.2041917  58.5746165 120.3753517  59.9089976
  59.3609254 119.9572940  59.5580393  58.8384869 121.2799609  60.0771625
  63.9754592 120.3128750  60.8122955  64.7079764 119.7427967  61.0460784
  63.2193948 119.9250350  61.2529460  55.5930712 122.7355991  58.0086297
  55.2288919 122.2086612  58.7199219  56.4497828 122.3454460  57.8352783
  61.4980012 114.0250324  65.2717563  61.1663337 114.8945735  65.0478778
  60.9025626 113.7086608  65.9511594  55.2336199 117.7645891  53.0047646
  55.4010601 118.6326127  53.3718117  55.0433368 117.9273173  52.0808935
  61.3908676 118.7445410  62.3510913  60.4825553 118.6760819  62.0569674
  61.3396272 119.2217355  63.1792739  55.2125420 120.2203549  53.9894312
  55.0925045 120.6660599  54.8279793  54.5178008 120.5688866  53.4307851
  55.4649542 120.1635056  70.2945811  54.6882876 120.7228976  70.2848675
  56.1040105 120.6491839  70.8160681  63.2570322 116.9461849  64.1288787
  62.6144702 117.2394382  63.4828582  62.7525251 116.8314769  64.9341984
  60.9110486 120.6925022  54.8174647  61.8228342 120.9252408  54.6422344
  60.4020133 121.2762066  54.2549725  59.1951254 125.1149650  68.4535939
  59.6034610 124.6732060  67.7090571  58.4728515 124.5402277  68.7070132
  55.5482324 120.0522256  65.8269496  56.3943519 120.4761670  65.9704145
  55.4880961 119.3955881  66.5208059  58.6981769 117.7126625  67.4850670
  58.4542701 118.4668685  66.9484945  58.9741699 118.0911972  68.3197917
  60.6520232 124.2565237  66.1627935  60.8637127 124.8996997  65.4862316
  60.6049980 123.4227554  65.6949865  58.2546461 116.8683058  63.0664507
  57.3930940 117.1664311  63.3581245  58.2808895 117.0853457  62.1345540
  54.0076916 121.5348401  56.2827878  54.7100959 121.9869444  56.7501805
  53.6757545 120.8932219  56.9107771  52.4557278 120.1260157  70.6579088
  51.8255938 120.8076438  70.8914484  52.3493366 120.0143239  69.7132226
  47.7502250 119.7931953  61.5845012  46.9601304 120.0489482  61.1085122
  48.2413497 120.6080291  61.6897052  49.7016995 120.1576533  58.5428488
  48.9048159 120.2695227  59.0611984  49.4742588 120.4963185  57.6769379
  69.8572053 123.4775941  60.6835264  69.1035761 122.9083339  60.5279269
  69.9919594 123.4438605  61.6305899  51.7338020 114.4280923  73.0204339
  51.3404966 113.8747122  73.6951983  52.5504161 114.7391502  73.4110856
  54.6505981 115.8438802  70.6124595  55.3915695 116.4445955  70.5329058
  54.8823904 115.1016440  70.0542638  49.7947319 121.0295169  68.8902825
  49.6800835 120.1280427  69.1909924  48.9391837 121.2758866  68.5387641
  58.5963144 111.8719905  64.8888877  58.2527414 112.7621547  64.8127987
  58.9642107 111.6821563  64.0258462  58.5613427 121.8628516  53.3961312
  58.0460050 122.6333121  53.6349699  58.2890735 121.1893652  54.0194373
  56.1460538 116.7078217  58.4546550  55.2902134 116.3185067  58.2752189
  56.5587490 116.7870178  57.5946336  57.6759685 114.2424560  62.8538110
  57.1724480 114.2054695  62.0405915  57.9690292 115.1517303  62.9134767
  53.9202571 114.3263290  61.8604292  54.7855567 114.1306099  61.5010181
  53.9880080 114.0973642  62.7873649  63.5347701 124.6160871  55.3314485
  62.7577144 124.2772030  54.8869648  64.2139182 124.6213494  54.6569451
  58.3499730 119.7355608  55.2221093  58.0449866 120.0501758  56.0731236
  59.3030172 119.8137028  55.2648426  61.7739008 124.0894852  61.9881093
  61.1162683 124.7794114  62.0761222  62.5779407 124.4791284  62.3315080
  51.5264890 116.5565498  59.2320659  52.1008642 116.3340679  58.4993852
  52.1135872 116.6254192  59.9849260  60.5844467 122.4439225  60.0385035
  61.0976349 123.0769217  60.5406745  61.2345691 121.8440420  59.6728395
  51.8534477 118.5869959  53.2516544  51.0171789 118.9244646  53.5725819
  51.7139246 118.4518939  52.3143681  53.8287557 113.4306747  57.9595728
  53.1751970 113.1155764  57.3352343  53.7868032 112.8082487  58.6855551
  54.9398762 123.7126042  49.8749020  54.0325824 123.4815295  50.0740169
  55.4369794 122.9163661  50.0623002  57.0625298 119.9188680  62.2843376
  56.1447859 120.1403627  62.1265064  57.4785441 119.9934991  61.4255083
  57.8460346 121.3180096  57.4146056  58.5932164 121.8301493  57.1053178
  58.1151935 120.9964149  58.2750450  56.1186996 123.8138637  54.3973010
  55.2098215 123.5297670  54.4945480  56.1482079 124.2337715  53.5376317
  60.2939183 118.3537212  59.3964845  59.5561939 117.8414599  59.7275088
  60.5465956 117.9137594  58.5848122  60.3950810 111.1313464  59.9906615
  60.7009687 110.2710828  59.7032530  61.1203415 111.7231085  59.7905608
  54.6671890 121.4267257  60.4982806  54.7220500 120.4741094  60.4225282
  53.8563092 121.5826696  60.9824104  52.6064250 120.0444317  58.2573185
  51.7932115 120.3438488  58.6638377  53.1023244 119.6500006  58.9747667
  58.2038461 120.5086142  67.0888078  58.5587849 120.7357615  67.9482544
  58.8510593 120.8404518  66.4665334  63.9336198 123.6304577  57.7937407
  63.7954097 123.8206173  56.8658597  63.5772417 124.3923960  58.2505459
  52.0978324 117.6162673  63.8734419  52.7377704 117.4751432  63.1757383
  51.2655855 117.3297186  63.4973021  63.9605578 125.6981104  62.8048679
  64.3942085 125.6056394  63.6531733  64.6737159 125.6738605  62.1668695
  49.1821392 121.0608185  56.0629165  48.2518980 120.9992640  56.2799127
  49.2778864 120.5384138  55.2665806  49.1006941 117.5862998  58.6507406
  49.3613758 118.5008331  58.5416567  49.9224113 117.1187440  58.8004019
  50.5731866 119.0000755  65.8206231  51.2454920 118.7918117  65.1718880
  49.7461653 118.8022841  65.3811463  64.8221127 125.7404805  65.3381564
  65.0157018 126.6450616  65.5840839  64.7221746 125.2812224  66.1720149
  56.4757438 115.6262696  67.8371892  55.8285353 116.3252645  67.7436368
  57.2458454 116.0598840  68.2048140  56.6521573 123.4643461  65.8968711
  57.5813633 123.6154620  65.7237679  56.2312603 123.5527481  65.0417358
  50.9759363 122.2743358  66.5808668  50.8379161 121.5423597  67.1820207
  51.8864287 122.1852258  66.2992856  59.9374311 124.2131762  51.3293146
  59.3203482 123.4878590  51.2326199  59.4690800 124.9741122  50.9860221
  53.6041664 121.9863317  66.0692348  54.3141283 121.3456509  66.0278966
  53.5610972 122.2376212  66.9918528  52.3170598 118.9728535  67.8887987
  51.7807955 118.5219273  68.5409583  51.7287307 119.1074444  67.1458451
  51.7272857 118.4317186  50.4514451  50.8502323 118.3105987  50.0876697
  52.2030610 117.6403265  50.1993339  48.0509719 118.1084543  64.9740982
  47.9667908 117.5010212  64.2391392  47.2292426 118.5993561  64.9750478
  58.2233433 116.5938106  60.3411177  58.7202133 115.8408069  60.0212247
  57.4520415 116.6302423  59.7754386  66.0763191 122.2978472  61.9829468
  66.0653067 123.1803187  61.6123401  65.2080570 121.9450023  61.7884005
  54.8068402 118.7355489  60.0682861  54.4366189 118.1826530  60.7563767
  55.3027494 118.1313623  59.5157861  62.6935765 121.1927113  58.4499634
  63.1596217 122.0255104  58.3759937  63.1443266 120.7272094  59.1544893
  60.6652428 113.5607700  62.4890536  59.7515508 113.7911927  62.6572742
  61.0945529 113.6446144  63.3404568  60.4358886 121.7497592  64.9890430
  59.7830337 121.9973499  64.3342882  60.8139266 120.9361730  64.6552907
  56.4846459 122.4917403  71.4756467  55.8087096 122.3911532  72.1458842
  57.3074093 122.3356616  71.9392464  50.2033736 116.1459480  66.3135967
  50.2675062 117.0074311  65.9013365  50.1400856 115.5333482  65.5808326
  49.6786008 118.2182613  69.9609002  50.3058047 117.8359690  70.5746526
  48.8213927 117.9996814  70.3264694  46.4551551 120.0259042  55.8927356
  46.7504992 119.1169720  55.8394410  45.5539587 120.0046781  55.5708359
  49.9845798 118.1015038  61.8754905  49.2632384 118.7151006  61.7362378
  50.7739054 118.6372803  61.7971551  52.7872111 115.4369465  68.1495557
  53.3106513 115.6831761  68.9121866  52.5684445 116.2689500  67.7298694
  48.1839392 117.7073139  56.0166682  47.8552099 116.8270518  55.8341787
  48.5378763 117.6520808  56.9043071  51.2981216 117.9946109  56.3842159
  51.6377288 118.5232030  55.6620768  51.7453336 118.3326515  57.1600726
  53.9924656 116.3783160  65.8345227  53.6521477 115.5790973  66.2365907
  53.2863663 116.6784871  65.2622060  54.6441128 113.4632472  64.2872550
  55.4667198 112.9892950  64.1651441  54.8879192 114.2422956  64.7871237
  53.2849363 116.4920731  54.5835452  54.0057725 116.8701983  54.0799169
  52.6614667 117.2109608  54.6870430  57.4280486 117.1965880  55.5193784
  57.6444100 118.0790518  55.2182612  56.9474553 116.8052093  54.7899426
  52.1679707 120.1551593  62.0964529  52.0224288 120.4691896  62.9888810
  51.6904911 120.7736493  61.5435428  54.0276090 117.1454141  62.1445418
  54.0137659 116.2495234  61.8077716  54.7448518 117.1524805  62.7783705
  55.8802221 117.5791481  64.1898546  55.6219998 118.5008552  64.1882876
  55.3487261 117.1821916  64.8799010  53.4312986 116.0268521  57.4132989
  53.5528897 115.0985167  57.6123876  53.1415028 116.0407207  56.5011304
  56.3004176 113.7123432  60.5499708  56.3225873 113.7762765  59.5951688
  56.7172235 112.8727940  60.7440215  66.6787801 123.4478691  58.5878931
  67.1218947 122.6986016  58.1898054  65.8014311 123.4388828  58.2052663
  52.9154065 117.5400519  71.6222921  52.9642221 118.4162641  71.2400691
  53.4576580 116.9977912  71.0494564  63.5206786 124.9334108  68.2156787
  63.5704791 124.7684116  69.1572310  63.4120709 124.0661367  67.8254668
  60.8110548 120.9165036  69.5316094  61.7120411 120.7771501  69.2400091
  60.8858523 121.0819491  70.4714271  55.1453354 118.2931891  68.3769280
  54.2756663 118.5865457  68.1051868  55.3812834 118.8772336  69.0976543
  66.2220665 124.9183929  60.9801379  67.0567557 125.3573734  61.1438939
  66.3579794 124.4422583  60.1609624  63.2712171 122.4763664  66.9278866
  63.7466293 122.6691311  66.1197718  62.3477737 122.5322850  66.6822250
  57.8492388 114.5111508  65.8934700  58.3674332 115.2472535  65.5681189
  57.4947520 114.8175501  66.7281459  49.4291325 119.3716189  54.0096106
  48.7360570 119.4460544  53.3536142  49.1843077 118.6076533  54.5317623
  58.1004982 110.9311790  61.4135597  58.3806736 110.2634979  62.0396023
  58.8855589 111.1240886  60.9010261  61.9713840 119.3529424  65.1607172
  62.9231263 119.4527522  65.1819396  61.8017291 118.5607693  65.6705256
  59.9928220 116.4385008  65.3466573  59.3978152 116.7190020  64.6513062
  59.7077916 116.9278909  66.1183314  64.4501918 122.5735544  64.2749472
  64.4178238 121.6351545  64.4609155  65.0602542 122.6519581  63.5415296
  56.2885249 121.4431597  50.3176676  57.2344354 121.3137805  50.3865094
  55.9099494 120.7046259  50.7946104  64.5996406 119.3646587  64.3207755
  64.0835455 118.5805044  64.1337684  65.4836355 119.0365304  64.4854274
  62.2607133 113.1087603  60.2803567  62.0631954 112.8002691  61.1646899
  62.8706839 113.8349242  60.4101497  70.2678468 123.6351551  63.4155508
  70.9981856 123.3736839  63.9763212  69.6585413 122.8980273  63.4557576
  68.3493765 121.7759413  64.0129960  67.6226928 121.6415378  63.4046451
  67.9341052 122.0836242  64.8186678  54.4728166 119.3681573  50.2531561
  53.5659621 119.0714686  50.3294274  54.7504147 119.0711392  49.3865847
  56.0890232 113.9118463  56.4075802  55.2790960 113.5665548  56.7831048
  56.7774649 113.6026007  56.9963414  58.0180780 112.9896510  58.0300099
  58.5711819 113.4091963  58.6890122  58.2550866 112.0632258  58.0723055
  54.0413879 118.9783584  73.8102863  53.9410606 119.9277941  73.7414954
  53.8235421 118.6501822  72.9378933  53.2426951 116.2268509  50.3943540
  54.1046115 116.5523407  50.6539357  53.4277295 115.4400005  49.8816606
  61.3959587 115.0997035  57.5378763  60.8158256 115.7581839  57.1556815
  61.1295520 114.2774380  57.1266181  59.8463153 114.5002093  59.7400083
  60.3462932 114.6118627  58.9314402  60.4898761 114.1963146  60.3800892
  53.9045149 122.4080722  72.6267924  53.4212231 123.2081083  72.8331813
  53.9906088 122.4188667  71.6735368  60.1784465 117.2597125  56.5935111
  59.2910320 117.5446776  56.3755306  60.5938454 117.0990889  55.7462388
  63.5299001 117.2843646  60.3089451  64.3059391 117.7740099  60.5814067
  62.8047135 117.7101701  60.7661320  65.9671560 117.9971266  61.3663391
  66.5616051 117.7567002  60.6556699  66.0398144 117.2778396  61.9936927
  60.1525489 122.7751661  56.8085401  60.0960690 123.2320213  55.9693034
  60.7053831 122.0142346  56.6308244  63.9630295 118.5641393  57.6335521
  63.7067229 118.1638029  58.4643729  63.3383163 119.2785187  57.5085660
  68.2742633 121.3037467  60.1406812  67.7142191 121.3730656  60.9138374
  67.6686136 121.1278451  59.4206309  60.8860268 123.9656443  54.1037931
  60.8309072 123.8000714  53.1626375  60.2606323 124.6732476  54.2600120
  45.6752783 119.2024507  67.9299353  46.3211647 118.6923461  68.4186578
  45.4669934 119.9393189  68.5042778  54.1956394 113.4664552  53.6823249
  54.1835063 114.4106392  53.8391520  55.0879815 113.2834697  53.3882710
  58.0108513 110.0607328  57.9369186  57.2440909 109.5065815  58.0825868
  58.4219218 110.1329197  58.7983337  50.0150274 116.3492124  72.0274367
  50.8781736 115.9928929  72.2377692  49.4415685 116.0106019  72.7149771
  69.4356899 127.2011823  64.8888877  69.0921168 128.0913464  64.8127987
  69.8035861 127.0113480  64.0258462  71.2344564 126.4605382  59.9906615
  71.5403441 125.6002745  59.7032530  71.9597169 127.0523002  59.7905608
  71.5046182 128.8899617  62.4890536  70.5909262 129.1203844  62.6572742
  71.9339284 128.9738061  63.3404568  68.9398736 126.2603708  61.4135597
  69.2200490 125.5926897  62.0396023  69.7249343 126.4532804  60.9010261
  73.1000888 128.4379521  60.2803567  72.9025709 128.1294609  61.1646899
  73.7100593 129.1641160  60.4101497  68.8574534 128.3188428  58.0300099
  69.4105573 128.7383881  58.6890122  69.0944621 127.3924176  58.0723055
  68.8502268 125.3899246  57.9369186  68.0834663 124.8357733  58.0825868
  69.2612972 125.4621115  58.7983337   4.8236125  23.0104597  49.5582075
   5.4614535  22.8911344  48.8545415   4.7056968  23.9585441  49.6170027
   1.6325832  22.9632025  49.4943599   1.2944343  22.8473090  48.6064134
   2.5015600  22.5623190  49.4744606   2.1145615  24.1166877  55.4529805
   2.1034255  23.7219675  54.5810309   2.2766254  23.3832949  56.0463576
   3.0712206  28.4838469  40.7954955   2.4200186  29.0692550  40.4088969
   3.8656569  29.0144664  40.8549993   4.3777394  20.7356051  46.6335283
   5.1640483  20.3175474  46.2825700   4.6416098  21.6402143  46.8016931
   4.5487471  26.1728901  41.3323940   3.9133304  26.2463528  42.0444844
   4.2184878  26.7622500  40.6543019   9.7785821  20.6731284  47.5368261
  10.5110993  20.1030501  47.7706091   9.0225177  20.2852885  47.9774767
   1.3961941  23.0958526  44.7331604   1.0320148  22.5689147  45.4444525
   2.2529057  22.7056995  44.5598089   7.3011241  14.3852858  51.9962870
   6.9694566  15.2548269  51.7724085   6.7056855  14.0689142  52.6756900
   1.0367428  18.1248425  39.7292952   1.2041830  18.9928662  40.0963423
   0.8464597  18.2875707  38.8054242   3.7942761  26.5865404  51.3958783
   3.4943484  27.4890443  51.2874590   3.4493820  26.3197587  52.2479936
   7.1939905  19.1047944  49.0756220   6.2856782  19.0363353  48.7814981
   7.1427500  19.5819889  49.9038045   1.2680770  20.5237590  57.0191117
   0.4914104  21.0831510  57.0093982   1.9071333  21.0094373  57.5405987
   9.0601551  17.3064383  50.8534094   8.4175931  17.5996916  50.2073888
   8.5556480  17.1917303  51.6587291   6.7141715  21.0527556  41.5419953
   7.6259571  21.2854943  41.3667651   6.2051362  21.6364600  40.9795032
   4.9982482  25.4752184  55.1781246   5.4065838  25.0334594  54.4335878
   4.2759744  24.9004811  55.4315439   1.3513552  20.4124791  52.5514803
   2.1974748  20.8364204  52.6949452   1.2912190  19.7558415  53.2453366
   5.3211297  26.0353374  48.9333535   4.6920159  26.1999089  48.2309602
   4.9336959  26.4494984  49.7044499   9.2000529  26.9707812  46.2877898
   8.5151567  27.3506714  45.7374932   9.2844378  27.5803139  47.0209846
   4.5012998  18.0729159  54.2095976   4.2573930  18.8271219  53.6730252
   4.7772928  18.4514506  55.0443223   6.4551461  24.6167771  52.8873242
   6.6668356  25.2599531  52.2107623   6.4081209  23.7830088  52.4195172
   4.0577689  17.2285592  49.7909814   3.1962169  17.5266845  50.0826552
   4.0840124  17.4455991  48.8590847   0.8739259  25.7727782  46.1983620
   1.3377604  26.0515485  45.4088242   0.6096057  24.8711227  46.0156710
   7.5697288  27.4939727  51.0595599   8.3914732  27.0919914  50.7778281
   7.5659691  27.3907961  52.0111715   1.3353892  27.0423770  53.2156310
   1.3998324  27.5044177  54.0514482   0.6264816  26.4121135  53.3438620
  15.6603282  23.8378475  47.4080571  14.9066990  23.2685873  47.2524575
  15.7950823  23.8041140  48.3551205   1.0501910  28.7091877  43.0835290
   0.9147584  29.5543413  43.5120138   1.5911722  28.9111155  42.3201224
   2.6770386  29.3315444  57.2135632   2.2334240  28.5451823  56.8956537
   3.3387600  29.5194594  56.5479523   4.7751624  29.6118244  55.2417033
   4.7570099  30.4327125  54.7497303   5.6971544  29.4872319  55.4667175
   1.2324678  27.1262373  56.0840542   1.7653015  26.3650662  55.8539850
   0.7038759  26.8336025  56.8264696   4.3644656  22.2231050  40.1206619
   3.8491279  22.9935655  40.3595006   4.0921964  21.5496187  40.7439680
   9.3378930  24.9763405  42.0559792   8.5608373  24.6374565  41.6114954
  10.0170411  24.9816028  41.3814757   4.1530959  20.0958143  41.9466400
   3.8481095  20.4104292  42.7976543   5.1061401  20.1739562  41.9893733
   2.5977391  26.2548366  43.5959354   2.0698752  25.5201125  43.2832591
   2.0964894  27.0323042  43.3499322   7.5770237  24.4497386  48.7126400
   6.9193911  25.1396648  48.8006529   8.3810636  24.8393818  49.0560386
   6.3875696  22.8041759  46.7630342   6.9007577  23.4371751  47.2652052
   7.0376920  22.2042955  46.3973702   3.6498070  32.7826083  39.5191013
   2.9759769  33.0857780  40.1275971   4.0363892  33.5855164  39.1696470
   2.8656527  20.2791215  49.0088682   1.9479088  20.5006162  48.8510370
   3.2816670  20.3537525  48.1500390   3.6491574  21.6782630  44.1391363
   4.3963393  22.1904027  43.8298485   3.9183164  21.3566683  44.9995756
   1.9218224  24.1741171  41.1218317   1.0129444  23.8900204  41.2190787
   1.9513308  24.5940250  40.2621624   7.1537492  27.7847760  44.8909485
   6.6999819  26.9438670  44.9474675   6.5231459  28.4209159  45.2284265
   6.0970411  18.7139747  46.1210152   5.3593168  18.2017133  46.4520395
   6.3497185  18.2740128  45.3093429   5.5970431  29.6224257  45.8259303
   5.8893406  30.1829314  45.1071668   6.1069052  29.9152818  46.5812462
   1.6194312  25.7149915  38.4606396   1.1813742  24.9985774  38.0012033
   2.3604753  25.9426029  37.8991487   0.5604056  30.4004608  46.9152756
   0.5180235  30.6265455  45.9861288   1.4766755  30.1667983  47.0638557
   4.0069690  20.8688676  53.8133385   4.3619078  21.0960149  54.6727851
   4.6541821  21.2007053  53.1910640   9.7367427  23.9907112  44.5182714
   9.5985326  24.1808708  43.5903903   9.3803646  24.7526495  44.9750765
   9.7636807  26.0583639  49.5293986  10.1973313  25.9658928  50.3777040
  10.4768387  26.0341139  48.8914002   3.4964702  29.6585733  51.0627086
   3.5501724  30.2276669  51.8304802   2.6279483  29.8287618  50.6981123
  10.6252356  26.1007339  52.0626871  10.8188246  27.0053150  52.3086146
  10.5252974  25.6414758  52.8965456   5.6867465  26.2514082  57.6367752
   5.5352971  26.0224634  56.7197835   5.6772144  27.2084684  57.6499097
   2.4552801  23.8245995  52.6214018   3.3844861  23.9757154  52.4482985
   2.0343831  23.9130016  51.7662665   1.8489285  32.9505756  41.7338092
   2.0241041  32.4793799  42.5483715   1.1622073  33.5771522  41.9619353
   2.8046348  27.2278262  47.7801393   2.4696181  27.1879032  48.6759043
   2.3050294  26.5622978  47.3071804   5.7405540  24.5734296  38.0538453
   5.1234711  23.8481124  37.9571506   5.2722028  25.3343657  37.7105527
   7.3959672  29.2833205  55.7144233   7.3372218  28.5992425  55.0474816
   7.7979190  30.0252195  55.2624859   7.3977079  27.2472789  53.9458213
   6.5103858  26.9098710  54.0684612   7.9675630  26.5155820  54.1826979
   0.9278232  31.9074241  50.9119456   0.8548404  32.7129212  51.4238761
   0.4855625  32.1066207  50.0867478   4.0264662  16.9540640  47.0656483
   4.5233362  16.2010603  46.7457554   3.2551643  16.9904957  46.4999693
  11.8794419  22.6581006  48.7074775  11.8684296  23.5405721  48.3368708
  11.0111799  22.3052557  48.5129312   3.3876916  31.8061075  53.0677615
   4.1004888  32.4408540  52.9953516   2.8966944  31.9024941  52.2517617
   5.1094443  25.7112328  44.6394907   4.1750721  25.8313790  44.4699611
   5.2871111  24.8084794  44.3754917   8.4966994  21.5529647  45.1744941
   8.9627446  22.3857639  45.1005243   8.9474495  21.0874629  45.8790199
   6.5643225  27.8973468  42.1731093   6.8403069  27.7830063  43.0824967
   5.6947724  27.4990953  42.1343266   6.2390115  22.1100126  51.7135736
   5.5861565  22.3576033  51.0588189   6.6170495  21.2964264  51.3798213
   3.1997289  32.1459819  45.8163906   3.3819684  31.3281475  46.2791659
   4.0230275  32.3627511  45.3788796   3.5339455  31.0728004  43.0778955
   4.0627221  30.5620459  42.4649117   3.7967674  30.7570534  43.9424488
   2.2877688  22.8519937  58.2001773   1.6118325  22.7514066  58.8704148
   3.1105322  22.6959151  58.6637770   1.0300471  34.1586864  52.4359389
   1.5818779  34.3218486  53.2008474   1.3706665  34.7491302  51.7639414
   5.8811345  28.9848122  58.2908044   6.4251249  29.5978080  57.7962998
   5.2998190  29.5427700  58.8075057   4.1668858  32.1068840  49.4223071
   4.0419998  31.3058580  48.9134017   4.8247950  32.6015033  48.9337041
   6.2303767  29.9077860  51.0502621   5.2834102  29.7883211  50.9780948
   6.5786540  29.0200358  51.1328883   3.2350200  29.7030576  47.2506974
   3.0875163  28.7747284  47.4314544   4.0603694  29.7250667  46.7664049
   6.8384322  30.5259135  48.3371846   7.7630869  30.3201996  48.1996298
   6.6699625  30.2775536  49.2461188   3.2311714  17.5568414  42.2439091
   3.4475329  18.4393052  41.9427919   2.7505782  17.1654627  41.5144733
   6.6279638  31.0444802  43.6933938   6.8016516  30.4791225  42.9407790
   7.1208529  31.8445697  43.5113428  12.4819029  23.8081225  45.3124238
  12.9250175  23.0588551  44.9143361  11.6045540  23.7991362  44.9297970
   7.6154811  30.3611567  40.7930836   8.3105715  30.9818259  41.0118151
   7.9577961  29.5106918  41.0683214   9.5146234  27.8111272  42.3218167
  10.0397558  28.1498545  41.5967487   9.4268586  26.8758288  42.1381302
   1.1766282  31.7245346  54.4508044   1.4853409  31.4794493  55.3230743
   1.9741764  31.9291984  53.9626914   1.1986895  33.8783256  46.6813420
   0.7591885  33.3859634  47.3746277   1.9495011  33.3356223  46.4405495
   9.2040140  28.4444176  57.6269365   8.4135684  28.4268315  57.0873864
   8.9673494  28.9832470  58.3818402   9.3238015  25.2936642  54.9402093
   9.3736020  25.1286650  55.8817616   9.2151938  24.4263901  54.5499974
   6.6141777  21.2767570  56.2561400   7.5151640  21.1374035  55.9645398
   6.6889752  21.4422025  57.1959578  10.8256212  27.7133584  55.1844115
  10.5341020  28.0763564  56.0207576  10.2128343  27.0000592  55.0057447
  12.0251894  25.2786464  47.7046685  12.8598785  25.7176268  47.8684246
  12.1611023  24.8025117  46.8854931   9.0743400  22.8366199  53.6524173
   9.5497522  23.0293845  52.8443024   8.1508965  22.8925384  53.4067557
   1.7069679  30.4673318  39.7005930   1.1343646  31.0863506  39.2476402
   2.2802473  31.0172680  40.2345852   7.7745069  19.7131959  51.8852479
   8.7262492  19.8130056  51.9064703   7.6048519  18.9210227  52.3950563
   5.7959448  16.7987542  52.0711880   5.2009381  17.0792555  51.3758368
   5.5109145  17.2881443  52.8428621   4.9266939  30.7510469  40.8314512
   5.8597612  30.6856030  41.0347388   4.8390152  31.5866735  40.3729045
   7.5554956  30.0676339  37.7918460   7.4768587  29.7336203  38.6854218
   8.3764622  30.5598107  37.7909932  10.2533147  22.9338078  50.9994778
  10.2209467  21.9954079  51.1854462  10.8633770  23.0122115  50.2660603
   2.0916478  21.8034131  37.0421982   3.0375582  21.6740339  37.1110400
   1.7130723  21.0648793  37.5191410  10.4027635  19.7249122  51.0453061
   9.8866684  18.9407578  50.8582990  11.2867584  19.3967838  51.2099581
   8.0638362  13.4690137  47.0048874   7.8663183  13.1605225  47.8892206
   8.6738068  14.1951776  47.1346804  16.0709697  23.9954085  50.1400815
  16.8013085  23.7339373  50.7008518  15.4616642  23.2582807  50.1802883
  14.1524994  22.1361948  50.7375266  13.4258157  22.0017913  50.1291758
  13.7372281  22.4438776  51.5431984   1.9755170  25.8551877  58.5022639
   2.8958180  26.0330476  58.6962686   1.9404753  24.9107923  58.3502339
   7.1990816  15.4599569  44.2624070   6.6189485  16.1184373  43.8802122
   6.9326749  14.6376914  43.8511487   5.6494382  14.8604627  46.4645390
   6.1494161  14.9721162  45.6559709   6.2929990  14.5565680  47.1046198
   5.9815694  17.6199660  43.3180418   5.0941549  17.9049310  43.1000613
   6.3969683  17.4593423  42.4707695   9.3330230  17.6446181  47.0334757
  10.1090620  18.1342633  47.3059374   8.6078364  18.0704235  47.4906627
  11.7702789  18.3573800  48.0908698  12.3647279  18.1169536  47.3802006
  11.8429372  17.6380930  48.7182234   5.1258907  27.3844334  37.4128438
   5.8294757  27.5894337  38.0286094   4.4021556  27.9521096  37.6777521
   5.9556718  23.1354196  43.5330708   5.8991919  23.5922747  42.6938341
   6.5085060  22.3744880  43.3553551   9.7661524  18.9243928  44.3580828
   9.5098458  18.5240563  45.1889035   9.1414392  19.6387721  44.2330967
  14.0773861  21.6640001  46.8652119  13.5173419  21.7333190  47.6383681
  13.4717365  21.4880985  46.1451615   7.0345605  27.8226864  39.4626898
   7.8691209  27.3908062  39.2804373   6.8729948  27.6508877  40.3903792
   6.6891497  24.3258977  40.8283237   6.6340301  24.1603248  39.8871681
   6.0637552  25.0335010  40.9845427   4.0037404  26.6307889  60.1536800
   4.8728564  26.8048541  59.7923435   3.5244156  27.4502306  60.0312529
  15.6629880  38.3396515  49.5582075  16.3008290  38.2203262  48.8545415
  15.5450723  39.2877359  49.6170027  12.4719586  38.2923943  49.4943599
  12.1338098  38.1765007  48.6064134  13.3409354  37.8915108  49.4744606
   8.3306402  40.1459419  45.4840490   7.7671267  40.0549356  44.7156778
   8.2158797  39.3259324  45.9642983  12.9539369  39.4458795  55.4529805
  12.9428010  39.0511593  54.5810309  13.1160009  38.7124867  56.0463576
   5.8770834  41.6410611  48.3224711   6.6692126  41.3001435  47.9071010
   6.1167484  41.7505586  49.2426864  13.9105961  43.8130387  40.7954955
  13.2593940  44.3984467  40.4088969  14.7050323  44.3436582  40.8549993
   7.8361588  40.9019524  41.1942090   8.6092464  40.3548511  41.0554965
   8.1886987  41.7663773  41.4056551   9.6746630  42.2295906  54.4008989
   9.3836496  43.1341537  54.2855655  10.3103615  42.2712434  55.1153059
  10.6002837  39.6072755  50.9910349  11.1966409  39.3828777  50.2767312
  10.6577809  38.8657500  51.5935796  10.1727866  37.0612190  38.8260540
  10.4253386  36.5393711  38.0644003   9.2352425  36.8978336  38.9287223
  15.2171148  36.0647969  46.6335283  16.0034238  35.6467392  46.2825700
  15.4809853  36.9694061  46.8016931  15.3881226  41.5020819  41.3323940
  14.7527059  41.5755445  42.0444844  15.0578632  42.0914418  40.6543019
  20.6179575  36.0023202  47.5368261  21.3504747  35.4322419  47.7706091
  19.8618931  35.6144802  47.9774767   9.8924154  38.9640296  41.0284915
   9.7760412  38.2885200  41.6965999  10.0026414  38.4772670  40.2117068
  12.2355695  38.4250443  44.7331604  11.8713902  37.8981064  45.4444525
  13.0922811  38.0348912  44.5598089  18.1404996  29.7144776  51.9962870
  17.8088321  30.5840187  51.7724085  17.5450609  29.3981060  52.6756900
  11.8761182  33.4540343  39.7292952  12.0435585  34.3220579  40.0963423
  11.6858351  33.6167625  38.8054242  14.6336515  41.9157322  51.3958783
  14.3337238  42.8182361  51.2874590  14.2887575  41.6489505  52.2479936
   8.0848997  38.3671119  47.4295487   7.1599493  38.2347333  47.6373179
   8.3333410  39.1465338  47.9265429  18.0333659  34.4339862  49.0756220
  17.1250536  34.3655270  48.7814981  17.9821255  34.9111807  49.9038045
  11.8550403  35.9098000  40.7139619  11.7350028  36.3555051  41.5525099
  11.1602991  36.2583318  40.1553157   5.4457808  38.0104392  48.2639276
   5.5750189  38.2638871  49.1778688   4.7655259  38.6032100  47.9443931
   9.6157295  48.6801642  44.3629750   9.5381325  49.6309467  44.4418231
   9.0118939  48.3347515  45.0204677  12.1074525  35.8529508  57.0191117
  11.3307859  36.4123428  57.0093982  12.7465088  36.3386291  57.5405987
  19.8995306  32.6356300  50.8534094  19.2569686  32.9288834  50.2073888
  19.3950234  32.5209221  51.6587291  17.5535469  36.3819474  41.5419953
  18.4653325  36.6146860  41.3667651  17.0445116  36.9656518  40.9795032
  10.3620897  38.6614961  56.5809084  11.1035582  39.2000005  56.3043908
   9.6557883  39.2881250  56.7380636  15.8376237  40.8044101  55.1781246
  16.2459593  40.3626512  54.4335878  15.1153498  40.2296729  55.4315439
  12.1907307  35.7416708  52.5514803  13.0368502  36.1656122  52.6949452
  12.1305945  35.0850333  53.2453366  16.1605052  41.3645292  48.9333535
  15.5313914  41.5291006  48.2309602  15.7730714  41.7786902  49.7044499
  20.0394283  42.2999730  46.2877898  19.3545322  42.6798631  45.7374932
  20.1238133  42.9095057  47.0209846  15.3406752  33.4021077  54.2095976
  15.0967684  34.1563137  53.6730252  15.6166683  33.7806424  55.0443223
  17.2945215  39.9459689  52.8873242  17.5062110  40.5891449  52.2107623
  17.2474963  39.1122005  52.4195172  14.8971444  32.5577510  49.7909814
  14.0355923  32.8558763  50.0826552  14.9233879  32.7747908  48.8590847
  11.7133013  41.1019700  46.1983620  12.1771359  41.3807403  45.4088242
  11.4489811  40.2003145  46.0156710   8.6057094  40.6491182  49.1363383
   9.1758452  41.0778450  48.4980867   9.1965206  40.3673766  49.8347569
  10.6501899  37.2242853  43.0073185  11.3525943  37.6763896  43.4747111
  10.3182528  36.5826671  43.6353078   9.0982261  35.8154609  57.3824394
   8.4680922  36.4970890  57.6159791   8.9918349  35.7037691  56.4377532
   4.3927233  35.4826405  48.3090318   3.6026287  35.7383934  47.8330429
   4.8838481  36.2974743  48.4142359  18.4091043  42.8231644  51.0595599
  19.2308487  42.4211832  50.7778281  18.4053446  42.7199879  52.0111715
   6.3441979  35.8470984  45.2673795   5.5473142  35.9589679  45.7857291
   6.1167571  36.1857637  44.4014686  12.1747646  42.3715688  53.2156310
  12.2392079  42.8336095  54.0514482  11.4658570  41.7413053  53.3438620
   2.6764936  35.7356896  50.7405309   2.9272975  36.6203906  51.0062885
   3.2124485  35.5561497  49.9680401  26.4997036  39.1670393  47.4080571
  25.7460744  38.5977791  47.2524575  26.6344577  39.1333057  48.3551205
  11.8895664  44.0383795  43.0835290  11.7541339  44.8835331  43.5120138
  12.4305477  44.2403073  42.3201224   8.3763004  30.1175375  59.7449645
   7.9829949  29.5641574  60.4197290   9.1929144  30.4285953  60.1356163
   5.3425061  41.5559233  43.6563215   5.8549582  42.3502483  43.8068780
   5.9947774  40.8585524  43.5896817   7.1519946  44.6724989  45.7385968
   7.3286574  45.5942954  45.5506952   7.9476780  44.3583409  46.1680348
  11.2930965  31.5333254  57.3369902  12.0340678  32.1340407  57.2574364
  11.5248888  30.7910892  56.7787944   6.4372303  36.7189621  55.6148132
   6.3225818  35.8174879  55.9155230   5.5816820  36.9653318  55.2632948
  13.5164140  44.6607362  57.2135632  13.0727995  43.8743740  56.8956537
  14.1781354  44.8486512  56.5479523   8.2751262  46.1903163  51.7396311
   8.8258687  46.0620227  50.9673305   7.4362738  46.4898052  51.3891203
  15.6145379  44.9410162  55.2417033  15.5963854  45.7619043  54.7497303
  16.5365299  44.8164237  55.4667175  12.0718433  42.4554291  56.0840542
  12.6046769  41.6942579  55.8539850  11.5432514  42.1627943  56.8264696
  15.2388128  27.5614357  51.6134184  14.8952397  28.4515999  51.5373294
  15.6067090  27.3716015  50.7503769   3.3073978  39.8847887  44.4322786
   4.1449200  40.2944896  44.2156493   3.4852246  38.9447330  44.4022980
  15.2038410  37.5522968  40.1206619  14.6885034  38.3227573  40.3595006
  14.9315719  36.8788104  40.7439680  12.7885521  32.3972669  45.1791857
  11.9327118  32.0079519  44.9997496  13.2012473  32.4764630  44.3191643
  14.3184668  29.9319012  49.5783417  13.8149464  29.8949147  48.7651222
  14.6115275  30.8411755  49.6380073  10.5627554  30.0157742  48.5849599
  11.4280551  29.8200551  48.2255488  10.6305063  29.7868094  49.5118955
  20.1772684  40.3055323  42.0559792  19.4002127  39.9666482  41.6114954
  20.8564165  40.3107946  41.3814757  14.9924714  35.4250060  41.9466400
  14.6874849  35.7396209  42.7976543  15.9455156  35.5031480  41.9893733
  13.4371145  41.5840284  43.5959354  12.9092507  40.8493043  43.2832591
  12.9358648  42.3614960  43.3499322  18.4163991  39.7789304  48.7126400
  17.7587666  40.4688565  48.8006529  19.2204391  40.1685736  49.0560386
   8.1689873  32.2459950  45.9565965   8.7433625  32.0235131  45.2239158
   8.7560855  32.3148644  46.7094567  17.2269450  38.1333677  46.7630342
  17.7401332  38.7663669  47.2652052  17.8770674  37.5334872  46.3973702
   8.4959460  34.2764411  39.9761851   7.6596772  34.6139097  40.2971125
   8.3564230  34.1413391  39.0388988  10.4712541  29.1201199  44.6841035
   9.8176953  28.8050216  44.0597650  10.4293015  28.4976939  45.4100858
  11.5823746  39.4020494  36.5994327  10.6750807  39.1709747  36.7985476
  12.0794778  38.6058113  36.7868308  14.4891824  48.1118001  39.5191013
  13.8153523  48.4149698  40.1275971  14.8757646  48.9147081  39.1696470
  13.7050281  35.6083132  49.0088682  12.7872842  35.8298079  48.8510370
  14.1210425  35.6829443  48.1500390  14.4885329  37.0074548  44.1391363
  15.2357148  37.5195945  43.8298485  14.7576918  36.6858601  44.9995756
  12.7611979  39.5033089  41.1218317  11.8523198  39.2192121  41.2190787
  12.7907063  39.9232167  40.2621624  17.9931246  43.1139678  44.8909485
  17.5393573  42.2730588  44.9474675  17.3625213  43.7501077  45.2284265
  16.9364166  34.0431664  46.1210152  16.1986923  33.5309050  46.4520395
  17.1890939  33.6032046  45.3093429  16.4364186  44.9516175  45.8259303
  16.7287160  45.5121232  45.1071668  16.9462806  45.2444736  46.5812462
  17.0375793  26.8207916  46.7151921  17.3434670  25.9605280  46.4277836
  17.7628398  27.4125536  46.5150915   3.3300149  37.2238603  45.1033519
   3.1324549  36.6307964  44.3784586   2.7746813  36.9190813  45.8209458
  11.3096873  37.1161709  47.2228112  11.3645483  36.1635546  47.1470589
  10.4988075  37.2721148  47.7069411  12.4588067  41.0441832  38.4606396
  12.0207497  40.3277691  38.0012033  13.1998508  41.2717947  37.8991487
   9.2489233  35.7338769  44.9818491   8.4357098  36.0332940  45.3883683
   9.7448227  35.3394458  45.6992973  11.3997811  45.7296526  46.9152756
  11.3573990  45.9557372  45.9861288  12.3160510  45.4959901  47.0638557
  14.8463445  36.1980593  53.8133385  15.2012832  36.4252067  54.6727851
  15.4935576  36.5298970  53.1910640  20.5761182  39.3199029  44.5182714
  20.4379080  39.5100625  43.5903903  20.2197400  40.0818412  44.9750765
   8.7403308  33.3057125  50.5979726   9.3802687  33.1645884  49.9002689
   7.9080838  33.0191638  50.2218328  20.6030561  41.3875556  49.5293986
  21.0367068  41.2950845  50.3777040  21.3162142  41.3633057  48.8914002
   9.5163612  42.6059555  46.7114719  10.3104210  42.1109875  46.5097294
   8.8055304  42.0777418  46.3482424  14.3358456  44.9877651  51.0627086
  14.3895478  45.5568587  51.8304802  13.4673237  45.1579536  50.6981123
   5.8246375  36.7502637  42.7874471   4.8943963  36.6887092  43.0044433
   5.9203847  36.2278589  41.9911113   5.7431924  33.2757450  45.3752713
   6.0038741  34.1902783  45.2661873   6.5649096  32.8081892  45.5249326
   7.2156849  34.6895207  52.5451537   7.8879903  34.4812569  51.8964186
   6.3886636  34.4917293  52.1056770  21.4646111  41.4299257  52.0626871
  21.6582001  42.3345068  52.3086146  21.3646729  40.9706676  52.8965456
  13.1182421  31.3157148  54.5617198  12.4710337  32.0147097  54.4681675
  13.8883437  31.7493292  54.9293447  16.5261219  41.5806000  57.6367752
  16.3746726  41.3516551  56.7197835  16.5165899  42.5376601  57.6499097
  13.2946556  39.1537913  52.6214018  14.2238616  39.3049072  52.4482985
  12.8737586  39.2421933  51.7662665  12.0934888  43.1788577  50.3912556
  11.9545973  42.8107361  51.2638494  11.3049484  43.6936216  50.2196513
  12.6883040  48.2797673  41.7338092  12.8634795  47.8085717  42.5483715
  12.0015828  48.9063440  41.9619353  13.6440103  42.5570180  47.7801393
  13.3089935  42.5170950  48.6759043  13.1444048  41.8914896  47.3071804
   7.6184347  37.9637810  53.3053975   7.4804145  37.2318049  53.9065514
   8.5289270  37.8746710  53.0238162  16.5799294  39.9026214  38.0538453
  15.9628465  39.1773042  37.9571506  16.1115783  40.6635574  37.7105527
  10.2466647  37.6757769  52.7937654  10.9566266  37.0350961  52.7524273
  10.2035956  37.9270664  53.7163835  18.2353426  44.6125122  55.7144233
  18.1765972  43.9284342  55.0474816  18.6372944  45.3544112  55.2624859
   8.9595581  34.6622987  54.6133294   8.4232938  34.2113725  55.2654890
   8.3712290  34.7968896  53.8703758   7.2544125  51.4287036  48.5077952
   7.4940723  52.0605560  49.1856971   6.4113321  51.0775076  48.7943312
   8.3697840  34.1211638  37.1759757   7.4927307  34.0000439  36.8122004
   8.8455593  33.3297717  36.9238646  18.2370833  42.5764706  53.9458213
  17.3497612  42.2390628  54.0684612  18.8069384  41.8447738  54.1826979
   4.6934703  33.7978995  51.6986288   4.6092891  33.1904664  50.9636698
   3.8717409  34.2888013  51.6995785  11.7671987  47.2366159  50.9119456
  11.6942158  48.0421130  51.4238761  11.3249380  47.4358124  50.0867478
  11.5561766  46.4737929  44.4222278  10.7729288  47.0159609  44.5160502
  12.2554512  46.9911908  44.8216519  14.8658416  32.2832558  47.0656483
  15.3627116  31.5302520  46.7457554  14.0945398  32.3196875  46.4999693
  22.7188174  37.9872924  48.7074775  22.7078050  38.8697639  48.3368708
  21.8505553  37.6344474  48.5129312  14.2270670  47.1352993  53.0677615
  14.9398642  47.7700457  52.9953516  13.7360699  47.2316859  52.2517617
  15.9488197  41.0404245  44.6394907  15.0144476  41.1605708  44.4699611
  16.1264866  40.1376712  44.3754917  11.4493385  34.4249941  46.7928168
  11.0791173  33.8720981  47.4809073  11.9452478  33.8208075  46.2403168
  19.3360748  36.8821565  45.1744941  19.8021201  37.7149556  45.1005243
  19.7868249  36.4166546  45.8790199   9.2782584  44.8847436  53.8883186
   9.9792043  45.5183919  54.0412580   8.8077699  45.2262168  53.1278825
  17.4036980  43.2265386  42.1731093  17.6796824  43.1121980  43.0824967
  16.5341478  42.8282871  42.1343266  17.3077411  29.2502152  49.2135842
  16.3940491  29.4806378  49.3818049  17.7370513  29.3340596  50.0649875
  17.0783870  37.4392044  51.7135736  16.4255320  37.6867951  51.0588189
  17.4564250  36.6256182  51.3798213  14.0391044  47.4751737  45.8163906
  14.2213438  46.6573393  46.2791659  14.8624030  47.6919429  45.3788796
  14.3733209  46.4019922  43.0778955  14.9020976  45.8912376  42.4649117
  14.6361429  46.0862452  43.9424488  13.1271443  38.1811855  58.2001773
  12.4512080  38.0805984  58.8704148  13.9499077  38.0251068  58.6637770
   4.8750302  44.4183791  50.8214288   5.4603739  43.6727479  50.9542193
   4.6775140  44.7287748  51.7050952   7.7288957  47.4535039  45.8376731
   7.0599332  47.9381166  45.3540771   7.5901827  47.7004259  46.7520109
  11.8694226  49.4878782  52.4359389  12.4212534  49.6510404  53.2008474
  12.2100419  50.0783220  51.7639414   6.8458719  31.8353932  53.0381274
   6.9100045  32.6968763  52.6258672   6.7825839  31.2227934  52.3053632
   6.3210991  33.9077064  56.6854308   6.9483030  33.5254142  57.2991833
   5.4638910  33.6891266  57.0510001  16.7205100  44.3140040  58.2908044
  17.2645004  44.9269998  57.7962998  16.1391945  44.8719618  58.8075057
   3.0976534  35.7153494  42.6172663   3.3929975  34.8064172  42.5639717
   2.1964570  35.6941233  42.2953665  15.0062613  47.4360758  49.4223071
  14.8813752  46.6350497  48.9134017  15.6641704  47.9306951  48.9337041
   6.6270781  33.7909490  48.6000212   5.9057367  34.4045458  48.4607685
   7.4164037  34.3267255  48.5216858  17.0697521  45.2369778  51.0502621
  16.1227857  45.1175129  50.9780948  17.4180294  44.3492276  51.1328883
   9.4297095  31.1263917  54.8740863   9.9531496  31.3726213  55.6367173
   9.2109428  31.9583951  54.4544001   4.8264376  33.3967591  42.7411988
   4.4977082  32.5164970  42.5587094   5.1803746  33.3415260  43.6288377
  14.0743955  45.0322494  47.2506974  13.9268917  44.1039201  47.4314544
  14.8997448  45.0542585  46.7664049   7.9406199  33.6840561  43.1087466
   8.2802271  34.2126482  42.3866074   8.3878319  34.0220967  43.8846032
  17.6778076  45.8551053  48.3371846  18.6024624  45.6493914  48.1996298
  17.5093380  45.6067454  49.2461188  10.6349640  32.0677612  52.5590534
  10.2946460  31.2685425  52.9611214   9.9288646  32.3679323  51.9867367
  11.2866112  29.1526924  51.0117857  12.1092181  28.6787402  50.8896747
  11.5304175  29.9317408  51.5116543   9.9274346  32.1815183  41.3080759
  10.6482709  32.5596435  40.8044475   9.3039650  32.9004059  41.4115737
  14.0705469  32.8860332  42.2439091  14.2869083  33.7684969  41.9427919
  13.5899536  32.4946545  41.5144733   8.8104690  35.8446045  48.8209836
   8.6649271  36.1586348  49.7134117   8.3329894  36.4630945  48.2680734
  10.6701073  32.8348593  48.8690725  10.6562642  31.9389686  48.5323023
  11.3873501  32.8419257  49.5029011  12.5227204  33.2685933  50.9143853
  12.2644982  34.1903004  50.9128183  11.9912244  32.8716368  51.6044317
  17.4673393  46.3736720  43.6933938  17.6410270  45.8083143  42.9407790
  17.9602284  47.1737615  43.5113428   3.2850352  38.3851389  51.7597497
   2.7403821  39.1611197  51.8917771   4.1629702  38.7322194  51.6016618
  10.0737969  31.7162973  44.1378295  10.1953880  30.7879619  44.3369183
   9.7840011  31.7301659  43.2256611  12.9429160  29.4017883  47.2745015
  12.9650856  29.4657217  46.3196995  13.3597219  28.5622392  47.4685521
  23.3212784  39.1373143  45.3124238  23.7643930  38.3880468  44.9143361
  22.4439294  39.1283279  44.9297970  18.4548565  45.6903485  40.7930836
  19.1499470  46.3110177  41.0118151  18.7971715  44.8398836  41.0683214
   4.0716374  37.5121285  54.6527654   3.3298110  37.6603921  55.2392284
   3.7509119  37.7729551  53.7894403  20.3539988  43.1403190  42.3218167
  20.8791312  43.4790463  41.5967487  20.2662341  42.2050205  42.1381302
  12.0160037  47.0537264  54.4508044  12.3247163  46.8086410  55.3230743
  12.8135519  47.2583902  53.9626914  12.0380649  49.2075173  46.6813420
  11.5985639  48.7151552  47.3746277  12.7888766  48.6648141  46.4405495
   4.5172988  45.3986714  46.6838048   5.3431008  45.0990486  46.3036692
   4.1667040  44.6294337  47.1327837   9.4854521  44.7513182  48.7535722
   8.8634530  44.0883887  48.4537950  10.1559388  44.7774314  48.0709370
   2.7181593  43.3173041  47.6426982   1.8813501  42.8895215  47.4610983
   2.6905238  43.5105484  48.5797773   9.5579049  33.2294970  58.3468228
   9.6067204  34.1057093  57.9645997  10.1001563  32.6872363  57.7739871
  20.0433894  43.7736094  57.6269365  19.2529438  43.7560233  57.0873864
  19.8067249  44.3124387  58.3818402  20.1631769  40.6228560  54.9402093
  20.2129774  40.4578567  55.8817616  20.0545693  39.7555819  54.5499974
   9.0468028  43.3017106  42.2294182   9.1956148  43.9852570  41.5760855
   9.8534472  43.2822196  42.7443638  17.4535532  36.6059488  56.2561400
  18.3545395  36.4665953  55.9645398  17.5283506  36.7713943  57.1959578
  11.7878337  33.9826343  55.1014587  10.9181647  34.2759909  54.8297175
  12.0237817  34.5666788  55.8221850  21.6649966  43.0425502  55.1844115
  21.3734775  43.4055482  56.0207576  21.0522097  42.3292510  55.0057447
  22.8645649  40.6078381  47.7046685  23.6992540  41.0468185  47.8684246
  23.0004777  40.1317035  46.8854931  19.9137154  38.1658116  53.6524173
  20.3891276  38.3585762  52.8443024  18.9902720  38.2217302  53.4067557
   6.8020661  39.3282283  43.2355251   6.5566703  38.4244613  43.4335461
   6.9716576  39.3299434  42.2934729  14.4917371  30.2005960  52.6180007
  15.0099315  30.9366987  52.2926495  14.1372504  30.5069953  53.4526766
   6.0716309  35.0610641  40.7341413   5.3785554  35.1354996  40.0781449
   5.8268060  34.2970985  41.2562930  14.7429965  26.6206242  48.1380903
  15.0231719  25.9529431  48.7641330  15.5280572  26.8135338  47.6255567
  12.5463434  45.7965236  39.7005930  11.9737401  46.4155423  39.2476402
  13.1196227  46.3464598  40.2345852  18.6138823  35.0423876  51.8852479
  19.5656246  35.1421974  51.9064703  18.4442274  34.2502145  52.3950563
  16.6353203  32.1279459  52.0711880  16.0403135  32.4084472  51.3758368
  16.3502900  32.6173360  52.8428621  15.7660693  46.0802386  40.8314512
  16.6991367  46.0147948  41.0347388  15.6783906  46.9158653  40.3729045
  18.3948710  45.3968257  37.7918460  18.3162342  45.0628120  38.6854218
  19.2158377  45.8890025  37.7909932  21.0926901  38.2629996  50.9994778
  21.0603221  37.3245997  51.1854462  21.7027525  38.3414033  50.2660603
  12.9310232  37.1326049  37.0421982  13.8769337  37.0032257  37.1110400
  12.5524477  36.3940711  37.5191410  21.2421390  35.0541039  51.0453061
  20.7260438  34.2699496  50.8582990  22.1261338  34.7259756  51.2099581
  18.9032117  28.7982055  47.0048874  18.7056938  28.4897143  47.8892206
  19.5131822  29.5243694  47.1346804  26.9103451  39.3246003  50.1400815
  27.6406840  39.0631291  50.7008518  26.3010397  38.5874725  50.1802883
  24.9918748  37.4653865  50.7375266  24.2651912  37.3309830  50.1291758
  24.5766035  37.7730694  51.5431984  12.8148925  41.1843795  58.5022639
  13.7351934  41.3622394  58.6962686  12.7798508  40.2399840  58.3502339
  11.1153149  35.0576025  36.9776868  10.2084605  34.7609138  37.0539581
  11.3929130  34.7605843  36.1111154   2.0331090  36.3782389  47.4275914
   1.7133874  35.5247697  47.1350288   1.4864518  36.5930967  48.1833881
   5.8110997  39.0944830  51.1445420   6.0297007  40.0261938  51.1633454
   6.2236771  38.7352804  51.9300224  12.7315215  29.6012915  43.1321109
  11.9215943  29.2560000  43.5076355  13.4199632  29.2920459  43.7208720
  14.6605763  28.6790962  44.7545405  15.2136802  29.0986415  45.4135429
  14.8975850  27.7526710  44.7968361  10.6838862  34.6678035  60.5348169
  10.5835589  35.6172392  60.4660260  10.4660405  34.3396274  59.6624239
   9.8851934  31.9162961  37.1188847  10.7471098  32.2417859  37.3784664
  10.0702278  31.1294456  36.6061913   1.9019350  39.9985300  49.3969036
   1.2082821  39.5839253  48.8838990   2.6492341  40.0405837  48.8002454
  18.0384570  30.7891487  44.2624070  17.4583239  31.4476291  43.8802122
  17.7720503  29.9668832  43.8511487  16.4888137  30.1896545  46.4645390
  16.9887915  30.3013079  45.6559709  17.1323745  29.8857598  47.1046198
  10.5470133  38.0975174  59.3513231  10.0637214  38.8975534  59.5577120
  10.6331072  38.1083119  58.3980675   3.8156092  39.9303554  47.2735050
   3.7926780  40.0291241  46.3216933   4.1256729  40.7768705  47.5952217
   6.4743470  41.9879709  51.3881665   7.4286724  41.9563651  51.3211596
   6.2755994  41.5270333  52.2031891   7.0642852  40.5580825  53.9552462
   7.8835741  41.0524904  53.9787300   7.3379660  39.6412793  53.9270030
  16.8209448  32.9491577  43.3180418  15.9335303  33.2341228  43.1000613
  17.2363437  32.7885341  42.4707695  20.1723985  32.9738098  47.0334757
  20.9484375  33.4634551  47.3059374  19.4472119  33.3996153  47.4906627
  22.6096543  33.6865718  48.0908698  23.2041034  33.4461454  47.3802006
  22.6823127  32.9672848  48.7182234   4.8293699  47.5299329  48.4051863
   4.6948167  46.7699729  47.8389861   4.4125761  48.2540228  47.9380652
  15.9652662  42.7136252  37.4128438  16.6688512  42.9186255  38.0286094
  15.2415311  43.2813014  37.6777521  16.7950472  38.4646113  43.5330708
  16.7385674  38.9214665  42.6938341  17.3478815  37.7036798  43.3553551
  20.6055278  34.2535845  44.3580828  20.3492212  33.8532481  45.1889035
  19.9808146  34.9679639  44.2330967  24.9167616  36.9931918  46.8652119
  24.3567174  37.0625108  47.6383681  24.3111119  36.8172903  46.1451615
   7.9862825  48.4268646  48.6170305   7.8695209  49.3714078  48.5148996
   7.1655271  48.1242207  49.0056105  17.8739359  43.1518781  39.4626898
  18.7084963  42.7199980  39.2804373  17.7123702  42.9800795  40.3903792
  17.5285251  39.6550895  40.8283237  17.4734055  39.4895166  39.8871681
  16.9031307  40.3626927  40.9845427   2.3177766  34.8918959  54.6544660
   2.9636630  34.3817913  55.1431885   2.1094918  35.6287641  55.2288085
  14.8431159  41.9599806  60.1536800  15.7122318  42.1340459  59.7923435
  14.3637910  42.7794223  60.0312529  10.8381377  29.1559004  40.4068556
  10.8260047  30.1000843  40.5636827  11.7304799  28.9729149  40.1128017
   9.0117339  49.0796907  51.8326234   9.9144586  49.1120518  52.1492729
   8.7854709  48.1497358  51.8472570  10.7670941  47.8327894  48.4936312
   9.8166572  47.8329756  48.3800685  11.0703427  47.0860629  47.9772347
  14.6533496  25.7501780  44.6614493  13.8865892  25.1960267  44.8071175
  15.0644201  25.8223649  45.5228644   6.6575257  32.0386576  58.7519674
   7.5206719  31.6823381  58.9622998   6.0840668  31.7000471  59.4395078
  26.5023634  53.6688432  49.5582075  27.1402044  53.5495180  48.8545415
  26.3844477  54.6169276  49.6170027  23.3113341  53.6215860  49.4943599
  22.9731852  53.5056925  48.6064134  24.1803109  53.2207026  49.4744606
  19.1700156  55.4751337  45.4840490  18.6065021  55.3841274  44.7156778
  19.0552551  54.6551241  45.9642983  23.7933124  54.7750712  55.4529805
  23.7821764  54.3803510  54.5810309  23.9553763  54.0416785  56.0463576
  16.7164588  56.9702528  48.3224711  17.5085880  56.6293353  47.9071010
  16.9561238  57.0797504  49.2426864  24.7499715  59.1422305  40.7954955
  24.0987695  59.7276385  40.4088969  25.5444078  59.6728499  40.8549993
  18.6755342  56.2311442  41.1942090  19.4486218  55.6840429  41.0554965
  19.0280741  57.0955691  41.4056551  20.5140385  57.5587824  54.4008989
  20.2230251  58.4633455  54.2855655  21.1497369  57.6004352  55.1153059
  21.4396592  54.9364673  50.9910349  22.0360164  54.7120695  50.2767312
  21.4971563  54.1949418  51.5935796  21.0121620  52.3904108  38.8260540
  21.2647141  51.8685629  38.0644003  20.0746179  52.2270253  38.9287223
  26.0564903  51.3939886  46.6335283  26.8427992  50.9759309  46.2825700
  26.3203607  52.2985978  46.8016931  26.2274980  56.8312737  41.3323940
  25.5920813  56.9047363  42.0444844  25.8972387  57.4206335  40.6543019
  31.4573330  51.3315119  47.5368261  32.1898502  50.7614336  47.7706091
  30.7012686  50.9436720  47.9774767  20.7317909  54.2932214  41.0284915
  20.6154167  53.6177117  41.6965999  20.8420169  53.8064588  40.2117068
  23.0749450  53.7542361  44.7331604  22.7107657  53.2272982  45.4444525
  23.9316566  53.3640830  44.5598089  28.9798750  45.0436694  51.9962870
  28.6482075  45.9132104  51.7724085  28.3844364  44.7272978  52.6756900
  22.7154937  48.7832261  39.7292952  22.8829339  49.6512497  40.0963423
  22.5252106  48.9459542  38.8054242  25.4730270  57.2449240  51.3958783
  25.1730993  58.1474278  51.2874590  25.1281329  56.9781423  52.2479936
  18.9242751  53.6963036  47.4295487  17.9993248  53.5639250  47.6373179
  19.1727165  54.4757256  47.9265429  28.8727414  49.7631780  49.0756220
  27.9644291  49.6947188  48.7814981  28.8215009  50.2403725  49.9038045
  22.6944158  51.2389918  40.7139619  22.5743783  51.6846969  41.5525099
  21.9996746  51.5875236  40.1553157  16.2851562  53.3396310  48.2639276
  16.4143944  53.5930789  49.1778688  15.6049014  53.9324018  47.9443931
  20.4551050  64.0093560  44.3629750  20.3775079  64.9601385  44.4418231
  19.8512693  63.6639432  45.0204677  22.9468279  51.1821425  57.0191117
  22.1701613  51.7415345  57.0093982  23.5858842  51.6678208  57.5405987
  30.7389060  47.9648218  50.8534094  30.0963440  48.2580751  50.2073888
  30.2343989  47.8501138  51.6587291  28.3929224  51.7111391  41.5419953
  29.3047080  51.9438778  41.3667651  27.8838871  52.2948435  40.9795032
  21.2014652  53.9906879  56.5809084  21.9429336  54.5291923  56.3043908
  20.4951637  54.6173167  56.7380636  26.6769991  56.1336019  55.1781246
  27.0853347  55.6918430  54.4335878  25.9547253  55.5588647  55.4315439
  23.0301061  51.0708626  52.5514803  23.8762257  51.4948039  52.6949452
  22.9699699  50.4142250  53.2453366  26.9998806  56.6937210  48.9333535
  26.3707668  56.8582924  48.2309602  26.6124468  57.1078819  49.7044499
  30.8788038  57.6291648  46.2877898  30.1939076  58.0090549  45.7374932
  30.9631887  58.2386974  47.0209846  26.1800507  48.7312994  54.2095976
  25.9361439  49.4855055  53.6730252  26.4560437  49.1098342  55.0443223
  28.1338969  55.2751607  52.8873242  28.3455865  55.9183367  52.2107623
  28.0868718  54.4413923  52.4195172  25.7365198  47.8869427  49.7909814
  24.8749677  48.1850681  50.0826552  25.7627633  48.1039826  48.8590847
  22.5526768  56.4311618  46.1983620  23.0165113  56.7099321  45.4088242
  22.2883566  55.5295062  46.0156710  19.4450849  55.9783099  49.1363383
  20.0152206  56.4070368  48.4980867  20.0358961  55.6965684  49.8347569
  21.4895654  52.5534770  43.0073185  22.1919697  53.0055814  43.4747111
  21.1576282  51.9118589  43.6353078  19.9376015  51.1446527  57.3824394
  19.3074676  51.8262808  57.6159791  19.8312103  51.0329608  56.4377532
  15.2320988  50.8118323  48.3090318  14.4420042  51.0675851  47.8330429
  15.7232235  51.6266661  48.4142359  29.2484797  58.1523562  51.0595599
  30.0702241  57.7503749  50.7778281  29.2447200  58.0491796  52.0111715
  17.1835733  51.1762902  45.2673795  16.3866897  51.2881596  45.7857291
  16.9561325  51.5149554  44.4014686  23.0141401  57.7007605  53.2156310
  23.0785833  58.1628013  54.0514482  22.3052325  57.0704970  53.3438620
  13.5158691  51.0648813  50.7405309  13.7666729  51.9495823  51.0062885
  14.0518239  50.8853415  49.9680401  37.3390790  54.4962311  47.4080571
  36.5854499  53.9269709  47.2524575  37.4738332  54.4624975  48.3551205
  22.7289419  59.3675713  43.0835290  22.5935093  60.2127249  43.5120138
  23.2699231  59.5694990  42.3201224  19.2156758  45.4467293  59.7449645
  18.8223704  44.8933491  60.4197290  20.0322899  45.7577871  60.1356163
  16.1818816  56.8851151  43.6563215  16.6943337  57.6794401  43.8068780
  16.8341529  56.1877441  43.5896817  17.9913701  60.0016907  45.7385968
  18.1680329  60.9234872  45.5506952  18.7870534  59.6875326  46.1680348
  22.1324719  46.8625172  57.3369902  22.8734433  47.4632325  57.2574364
  22.3642642  46.1202810  56.7787944  17.2766057  52.0481539  55.6148132
  17.1619572  51.1466796  55.9155230  16.4210575  52.2945236  55.2632948
  24.3557895  59.9899279  57.2135632  23.9121749  59.2035658  56.8956537
  25.0175109  60.1778430  56.5479523  19.1145016  61.5195081  51.7396311
  19.6652441  61.3912144  50.9673305  18.2756492  61.8189970  51.3891203
  26.4539133  60.2702079  55.2417033  26.4357608  61.0910960  54.7497303
  27.3759053  60.1456154  55.4667175  22.9112187  57.7846209  56.0840542
  23.4440524  57.0234497  55.8539850  22.3826268  57.4919861  56.8264696
  26.0781882  42.8906275  51.6134184  25.7346152  43.7807916  51.5373294
  26.4460845  42.7007932  50.7503769  14.1467733  55.2139805  44.4322786
  14.9842955  55.6236814  44.2156493  14.3246000  54.2739247  44.4022980
  26.0432165  52.8814886  40.1206619  25.5278788  53.6519490  40.3595006
  25.7709473  52.2080022  40.7439680  23.6279276  47.7264587  45.1791857
  22.7720872  47.3371437  44.9997496  24.0406228  47.8056547  44.3191643
  25.1578423  45.2610930  49.5783417  24.6543218  45.2241065  48.7651222
  25.4509029  46.1703673  49.6380073  21.4021308  45.3449660  48.5849599
  22.2674305  45.1492468  48.2255488  21.4698817  45.1160011  49.5118955
  31.0166439  55.6347240  42.0559792  30.2395882  55.2958400  41.6114954
  31.6957920  55.6399864  41.3814757  25.8318468  50.7541978  41.9466400
  25.5268604  51.0688127  42.7976543  26.7848910  50.8323398  41.9893733
  24.2764900  56.9132201  43.5959354  23.7486261  56.1784961  43.2832591
  23.7752403  57.6906878  43.3499322  29.2557746  55.1081222  48.7126400
  28.5981420  55.7980483  48.8006529  30.0598145  55.4977654  49.0560386
  19.0083627  47.5751868  45.9565965  19.5827379  47.3527049  45.2239158
  19.5954610  47.6440562  46.7094567  28.0663205  53.4625594  46.7630342
  28.5795086  54.0955586  47.2652052  28.7164429  52.8626790  46.3973702
  19.3353215  49.6056329  39.9761851  18.4990527  49.9431015  40.2971125
  19.1957984  49.4705308  39.0388988  21.3106295  44.4493116  44.6841035
  20.6570708  44.1342134  44.0597650  21.2686769  43.8268857  45.4100858
  22.4217500  54.7312411  36.5994327  21.5144562  54.5001665  36.7985476
  22.9188532  53.9350031  36.7868308  25.3285579  63.4409919  39.5191013
  24.6547278  63.7441615  40.1275971  25.7151401  64.2438999  39.1696470
  24.5444036  50.9375050  49.0088682  23.6266597  51.1589997  48.8510370
  24.9604179  51.0121360  48.1500390  25.3279083  52.3366466  44.1391363
  26.0750902  52.8487863  43.8298485  25.5970673  52.0150518  44.9995756
  23.6005733  54.8325006  41.1218317  22.6916953  54.5484039  41.2190787
  23.6300817  55.2524085  40.2621624  28.8325001  58.4431596  44.8909485
  28.3787328  57.6022506  44.9474675  28.2018968  59.0792994  45.2284265
  27.7757920  49.3723582  46.1210152  27.0380677  48.8600968  46.4520395
  28.0284694  48.9323963  45.3093429  27.2757940  60.2808093  45.8259303
  27.5680915  60.8413150  45.1071668  27.7856561  60.5736654  46.5812462
  27.8769548  42.1499834  46.7151921  28.1828425  41.2897197  46.4277836
  28.6022153  42.7417454  46.5150915  14.1693904  52.5530520  45.1033519
  13.9718304  51.9599881  44.3784586  13.6140568  52.2482731  45.8209458
  22.1490628  52.4453627  47.2228112  22.2039237  51.4927463  47.1470589
  21.3381830  52.6013066  47.7069411  23.2981821  56.3733750  38.4606396
  22.8601251  55.6569609  38.0012033  24.0392262  56.6009865  37.8991487
  20.0882987  51.0630687  44.9818491  19.2750853  51.3624857  45.3883683
  20.5841982  50.6686375  45.6992973  22.2391565  61.0588444  46.9152756
  22.1967744  61.2849290  45.9861288  23.1554264  60.8251818  47.0638557
  25.6857199  51.5272511  53.8133385  26.0406587  51.7543984  54.6727851
  26.3329330  51.8590888  53.1910640  31.4154936  54.6490947  44.5182714
  31.2772835  54.8392543  43.5903903  31.0591155  55.4110330  44.9750765
  19.5797062  48.6349042  50.5979726  20.2196442  48.4937801  49.9002689
  18.7474593  48.3483556  50.2218328  31.4424316  56.7167474  49.5293986
  31.8760822  56.6242763  50.3777040  32.1555896  56.6924975  48.8914002
  20.3557366  57.9351473  46.7114719  21.1497965  57.4401793  46.5097294
  19.6449058  57.4069336  46.3482424  25.1752211  60.3169568  51.0627086
  25.2289233  60.8860504  51.8304802  24.3066992  60.4871453  50.6981123
  16.6640130  52.0794554  42.7874471  15.7337718  52.0179010  43.0044433
  16.7597602  51.5570507  41.9911113  16.5825679  48.6049367  45.3752713
  16.8432496  49.5194700  45.2661873  17.4042851  48.1373810  45.5249326
  18.0550604  50.0187124  52.5451537  18.7273657  49.8104487  51.8964186
  17.2280390  49.8209210  52.1056770  32.3039865  56.7591175  52.0626871
  32.4975755  57.6636985  52.3086146  32.2040483  56.2998594  52.8965456
  23.9576176  46.6449065  54.5617198  23.3104091  47.3439015  54.4681675
  24.7277191  47.0785209  54.9293447  27.3654974  56.9097917  57.6367752
  27.2140480  56.6808469  56.7197835  27.3559653  57.8668519  57.6499097
  24.1340310  54.4829830  52.6214018  25.0632370  54.6340990  52.4482985
  23.7131340  54.5713851  51.7662665  22.9328642  58.5080495  50.3912556
  22.7939728  58.1399279  51.2638494  22.1443238  59.0228134  50.2196513
  23.5276794  63.6089591  41.7338092  23.7028550  63.1377634  42.5483715
  22.8409582  64.2355357  41.9619353  24.4833857  57.8862097  47.7801393
  24.1483690  57.8462867  48.6759043  23.9837803  57.2206813  47.3071804
  18.4578101  53.2929727  53.3053975  18.3197899  52.5609966  53.9065514
  19.3683025  53.2038627  53.0238162  27.4193049  55.2318132  38.0538453
  26.8022220  54.5064960  37.9571506  26.9509537  55.9927492  37.7105527
  21.0860402  53.0049687  52.7937654  21.7960020  52.3642879  52.7524273
  21.0429710  53.2562582  53.7163835  29.0747181  59.9417040  55.7144233
  29.0159727  59.2576260  55.0474816  29.4766699  60.6836030  55.2624859
  19.7989336  49.9914905  54.6133294  19.2626693  49.5405643  55.2654890
  19.2106044  50.1260813  53.8703758  18.0937879  66.7578954  48.5077952
  18.3334478  67.3897478  49.1856971  17.2507076  66.4066994  48.7943312
  19.2091595  49.4503556  37.1759757  18.3321061  49.3292357  36.8122004
  19.6849348  48.6589634  36.9238646  29.0764588  57.9056624  53.9458213
  28.1891367  57.5682546  54.0684612  29.6463139  57.1739655  54.1826979
  10.7293735  54.2380716  47.2701265  11.4164775  53.9242446  46.6822280
  10.5741864  55.1422080  46.9968516  15.5328457  49.1270912  51.6986288
  15.4486646  48.5196582  50.9636698  14.7111163  49.6179931  51.6995785
  22.6065741  62.5658076  50.9119456  22.5335913  63.3713048  51.4238761
  22.1643134  62.7650042  50.0867478  22.3955521  61.8029846  44.4222278
  21.6123043  62.3451527  44.5160502  23.0948266  62.3203826  44.8216519
  25.7052171  47.6124476  47.0656483  26.2020870  46.8594438  46.7457554
  24.9339152  47.6488792  46.4999693  33.5581928  53.3164841  48.7074775
  33.5471805  54.1989557  48.3368708  32.6899308  52.9636392  48.5129312
  25.0664425  62.4644910  53.0677615  25.7792397  63.0992375  52.9953516
  24.5754453  62.5608776  52.2517617  26.7881952  56.3696163  44.6394907
  25.8538230  56.4897625  44.4699611  26.9658620  55.4668630  44.3754917
  22.2887140  49.7541859  46.7928168  21.9184927  49.2012899  47.4809073
  22.7846232  49.1499992  46.2403168  30.1754503  52.2113482  45.1744941
  30.6414955  53.0441474  45.1005243  30.6262003  51.7458464  45.8790199
  20.1176338  60.2139354  53.8883186  20.8185798  60.8475837  54.0412580
  19.6471453  60.5554085  53.1278825  28.2430734  58.5557304  42.1731093
  28.5190578  58.4413898  43.0824967  27.3735233  58.1574788  42.1343266
  28.1471166  44.5794069  49.2135842  27.2334246  44.8098296  49.3818049
  28.5764267  44.6632513  50.0649875  27.9177624  52.7683961  51.7135736
  27.2649074  53.0159869  51.0588189  28.2958004  51.9548099  51.3798213
  24.8784798  62.8043654  45.8163906  25.0607193  61.9865310  46.2791659
  25.7017784  63.0211347  45.3788796  25.2126964  61.7311840  43.0778955
  25.7414730  61.2204294  42.4649117  25.4755183  61.4154370  43.9424488
  23.9665197  53.5103772  58.2001773  23.2905834  53.4097902  58.8704148
  24.7892831  53.3542986  58.6637770  15.7144056  59.7475709  50.8214288
  16.2997493  59.0019397  50.9542193  15.5168895  60.0579666  51.7050952
  18.5682712  62.7826956  45.8376731  17.8993087  63.2673084  45.3540771
  18.4295581  63.0296177  46.7520109  10.3061711  52.3181309  49.5418732
  10.3445811  51.7844900  50.3355850   9.8002004  51.7916515  48.9229709
  22.7087980  64.8170700  52.4359389  23.2606288  64.9802321  53.2008474
  23.0494174  65.4075138  51.7639414  17.6852473  47.1645850  53.0381274
  17.7493800  48.0260680  52.6258672  17.6219594  46.5519851  52.3053632
  17.1604746  49.2368982  56.6854308  17.7876785  48.8546059  57.2991833
  16.3032665  49.0183184  57.0510001  27.5598854  59.6431957  58.2908044
  28.1038758  60.2561916  57.7962998  26.9785699  60.2011536  58.8075057
  13.9370289  51.0445411  42.6172663  14.2323730  50.1356090  42.5639717
  13.0358324  51.0233151  42.2953665  25.8456367  62.7652675  49.4223071
  25.7207507  61.9642415  48.9134017  26.5035459  63.2598869  48.9337041
  17.4664536  49.1201408  48.6000212  16.7451121  49.7337375  48.4607685
  18.2557791  49.6559173  48.5216858  27.9091276  60.5661695  51.0502621
  26.9621611  60.4467047  50.9780948  28.2574049  59.6784193  51.1328883
  20.2690849  46.4555834  54.8740863  20.7925251  46.7018131  55.6367173
  20.0503182  47.2875869  54.4544001  15.6658130  48.7259509  42.7411988
  15.3370836  47.8456888  42.5587094  16.0197501  48.6707178  43.6288377
  24.9137709  60.3614412  47.2506974  24.7662672  59.4331119  47.4314544
  25.7391203  60.3834502  46.7664049  18.7799953  49.0132479  43.1087466
  19.1196026  49.5418400  42.3866074  19.2272074  49.3512885  43.8846032
  28.5171831  61.1842970  48.3371846  29.4418378  60.9785832  48.1996298
  28.3487134  60.9359371  49.2461188  21.4743394  47.3969529  52.5590534
  21.1340215  46.5977342  52.9611214  20.7682400  47.6971240  51.9867367
  22.1259866  44.4818842  51.0117857  22.9485935  44.0079320  50.8896747
  22.3697930  45.2609326  51.5116543  20.7668101  47.5107100  41.3080759
  21.4876463  47.8888353  40.8044475  20.1433405  48.2295977  41.4115737
  24.9099223  48.2152249  42.2439091  25.1262838  49.0976887  41.9427919
  24.4293291  47.8238463  41.5144733  19.6498445  51.1737962  48.8209836
  19.5043026  51.4878266  49.7134117  19.1723648  51.7922863  48.2680734
  21.5094828  48.1640510  48.8690725  21.4956396  47.2681604  48.5323023
  22.2267256  48.1711174  49.5029011  23.3620958  48.5977851  50.9143853
  23.1038736  49.5194921  50.9128183  22.8305999  48.2008285  51.6044317
  28.3067147  61.7028638  43.6933938  28.4804025  61.1375060  42.9407790
  28.7996038  62.5029533  43.5113428  14.1244107  53.7143307  51.7597497
  13.5797575  54.4903115  51.8917771  15.0023457  54.0614111  51.6016618
  20.9131724  47.0454891  44.1378295  21.0347635  46.1171537  44.3369183
  20.6233766  47.0593577  43.2256611  23.7822914  44.7309801  47.2745015
  23.8044611  44.7949134  46.3196995  24.1990973  43.8914310  47.4685521
  34.1606538  54.4665061  45.3124238  34.6037684  53.7172386  44.9143361
  33.2833049  54.4575197  44.9297970  29.2942320  61.0195402  40.7930836
  29.9893224  61.6402095  41.0118151  29.6365470  60.1690753  41.0683214
  14.9110129  52.8413203  54.6527654  14.1691865  52.9895838  55.2392284
  14.5902873  53.1021469  53.7894403  31.1933743  58.4695108  42.3218167
  31.7185067  58.8082380  41.5967487  31.1056095  57.5342123  42.1381302
  22.8553791  62.3829181  54.4508044  23.1640918  62.1378328  55.3230743
  23.6529273  62.5875820  53.9626914  22.8774404  64.5367091  46.6813420
  22.4379394  64.0443470  47.3746277  23.6282520  63.9940059  46.4405495
  15.3566742  60.7278632  46.6838048  16.1824762  60.4282404  46.3036692
  15.0060794  59.9586254  47.1327837  20.3248276  60.0805100  48.7535722
  19.7028285  59.4175805  48.4537950  20.9953143  60.1066232  48.0709370
  13.5575348  58.6464958  47.6426982  12.7207256  58.2187133  47.4610983
  13.5298993  58.8397402  48.5797773  20.3972803  48.5586888  58.3468228
  20.4460959  49.4349011  57.9645997  20.9395317  48.0164281  57.7739871
  30.8827649  59.1028011  57.6269365  30.0923193  59.0852150  57.0873864
  30.6461003  59.6416305  58.3818402  31.0025524  55.9520478  54.9402093
  31.0523529  55.7870485  55.8817616  30.8939447  55.0847737  54.5499974
  19.8861783  58.6309023  42.2294182  20.0349903  59.3144488  41.5760855
  20.6928226  58.6114113  42.7443638  28.2929286  51.9351406  56.2561400
  29.1939149  51.7957871  55.9645398  28.3677261  52.1005861  57.1959578
  22.6272092  49.3118261  55.1014587  21.7575401  49.6051827  54.8297175
  22.8631572  49.8958705  55.8221850  32.5043721  58.3717419  55.1844115
  32.2128529  58.7347400  56.0207576  31.8915852  57.6584428  55.0057447
  33.7039403  55.9370299  47.7046685  34.5386294  56.3760103  47.8684246
  33.8398532  55.4608952  46.8854931  30.7530909  53.4950034  53.6524173
  31.2285031  53.6877680  52.8443024  29.8296474  53.5509220  53.4067557
  17.6414416  54.6574201  43.2355251  17.3960457  53.7536531  43.4335461
  17.8110330  54.6591351  42.2934729  25.3311125  45.5297877  52.6180007
  25.8493069  46.2658904  52.2926495  24.9766258  45.8361871  53.4526766
  16.9110063  50.3902559  40.7341413  16.2179308  50.4646914  40.0781449
  16.6661815  49.6262902  41.2562930  25.5823720  41.9498160  48.1380903
  25.8625473  41.2821349  48.7641330  26.3674327  42.1427256  47.6255567
  23.3857188  61.1257154  39.7005930  22.8131155  61.7447341  39.2476402
  23.9589982  61.6756516  40.2345852  29.4532578  50.3715794  51.8852479
  30.4050001  50.4713892  51.9064703  29.2836028  49.5794063  52.3950563
  27.4746957  47.4571377  52.0711880  26.8796890  47.7376390  51.3758368
  27.1896654  47.9465278  52.8428621  26.6054448  61.4094304  40.8314512
  27.5385121  61.3439866  41.0347388  26.5177661  62.2450571  40.3729045
  29.2342465  60.7260174  37.7918460  29.1556096  60.3920038  38.6854218
  30.0552131  61.2181942  37.7909932  31.9320656  53.5921914  50.9994778
  31.8996976  52.6537914  51.1854462  32.5421279  53.6705950  50.2660603
  23.7703987  52.4617967  37.0421982  24.7163091  52.3324175  37.1110400
  23.3918232  51.7232629  37.5191410  32.0815144  50.3832957  51.0453061
  31.5654193  49.5991414  50.8582990  32.9655093  50.0551674  51.2099581
  29.7425871  44.1273973  47.0048874  29.5450692  43.8189061  47.8892206
  30.3525577  44.8535612  47.1346804  37.7497206  54.6537920  50.1400815
  38.4800594  54.3923209  50.7008518  37.1404151  53.9166642  50.1802883
  35.8312503  52.7945783  50.7375266  35.1045666  52.6601748  50.1291758
  35.4159790  53.1022612  51.5431984  23.6542679  56.5135713  58.5022639
  24.5745689  56.6914312  58.6962686  23.6192262  55.5691758  58.3502339
  21.9546904  50.3867943  36.9776868  21.0478359  50.0901056  37.0539581
  22.2322885  50.0897761  36.1111154  12.8724844  51.7074306  47.4275914
  12.5527628  50.8539615  47.1350288  12.3258272  51.9222885  48.1833881
  16.6504752  54.4236747  51.1445420  16.8690761  55.3553855  51.1633454
  17.0630525  54.0644722  51.9300224  23.5708969  44.9304833  43.1321109
  22.7609698  44.5851918  43.5076355  24.2593386  44.6212376  43.7208720
  25.4999518  44.0082880  44.7545405  26.0530556  44.4278333  45.4135429
  25.7369604  43.0818628  44.7968361  21.5232617  49.9969953  60.5348169
  21.4229344  50.9464310  60.4660260  21.3054159  49.6688192  59.6624239
  20.7245688  47.2454878  37.1188847  21.5864852  47.5709777  37.3784664
  20.9096033  46.4586374  36.6061913  12.7413104  55.3277218  49.3969036
  12.0476576  54.9131171  48.8838990  13.4886095  55.3697754  48.8002454
  28.8778325  46.1183405  44.2624070  28.2976994  46.7768209  43.8802122
  28.6114258  45.2960749  43.8511487  27.3281891  45.5188462  46.4645390
  27.8281670  45.6304997  45.6559709  27.9717499  45.2149515  47.1046198
  21.3863887  53.4267092  59.3513231  20.9030969  54.2267452  59.5577120
  21.4724826  53.4375037  58.3980675  14.6549847  55.2595472  47.2735050
  14.6320535  55.3583159  46.3216933  14.9650483  56.1060622  47.5952217
  17.3137225  57.3171627  51.3881665  18.2680478  57.2855569  51.3211596
  17.1149748  56.8562250  52.2031891  17.9036607  55.8872743  53.9552462
  18.7229496  56.3816821  53.9787300  18.1773414  54.9704711  53.9270030
  27.6603203  48.2783495  43.3180418  26.7729058  48.5633146  43.1000613
  28.0757192  48.1177258  42.4707695  31.0117739  48.3030016  47.0334757
  31.7878129  48.7926468  47.3059374  30.2865873  48.7288070  47.4906627
  33.4490298  49.0157635  48.0908698  34.0434788  48.7753371  47.3802006
  33.5216881  48.2964766  48.7182234  15.6687453  62.8591246  48.4051863
  15.5341921  62.0991647  47.8389861  15.2519516  63.5832146  47.9380652
  26.8046416  58.0428170  37.4128438  27.5082266  58.2478172  38.0286094
  26.0809065  58.6104932  37.6777521  27.6344227  53.7938031  43.5330708
  27.5779428  54.2506582  42.6938341  28.1872569  53.0328716  43.3553551
  31.4449033  49.5827763  44.3580828  31.1885967  49.1824399  45.1889035
  30.8201901  50.2971557  44.2330967  35.7561370  52.3223836  46.8652119
  35.1960928  52.3917025  47.6383681  35.1504874  52.1464821  46.1451615
  18.8256579  63.7560563  48.6170305  18.7088963  64.7005996  48.5148996
  18.0049025  63.4534125  49.0056105  28.7133114  58.4810699  39.4626898
  29.5478718  58.0491897  39.2804373  28.5517457  58.3092713  40.3903792
  28.3679006  54.9842812  40.8283237  28.3127810  54.8187084  39.8871681
  27.7425061  55.6918845  40.9845427  13.1571521  50.2210877  54.6544660
  13.8030385  49.7109831  55.1431885  12.9488672  50.9579558  55.2288085
  25.6824913  57.2891724  60.1536800  26.5516073  57.4632376  59.7923435
  25.2031665  58.1086141  60.0312529  21.6775131  44.4850921  40.4068556
  21.6653801  45.4292761  40.5636827  22.5698553  44.3021067  40.1128017
  19.8511093  64.4088825  51.8326234  20.7538340  64.4412435  52.1492729
  19.6248463  63.4789276  51.8472570  21.6064695  63.1619812  48.4936312
  20.6560326  63.1621673  48.3800685  21.9097181  62.4152546  47.9772347
  25.4927251  41.0793698  44.6614493  24.7259647  40.5252185  44.8071175
  25.9037956  41.1515567  45.5228644  17.4969012  47.3678494  58.7519674
  18.3600473  47.0115299  58.9622998  16.9234423  47.0292389  59.4395078
  37.3417389  68.9980350  49.5582075  37.9795799  68.8787097  48.8545415
  37.2238232  69.9461194  49.6170027  34.1507095  68.9507778  49.4943599
  33.8125607  68.8348843  48.6064134  35.0196863  68.5498943  49.4744606
  30.0093911  70.8043255  45.4840490  29.4458776  70.7133192  44.7156778
  29.8946306  69.9843159  45.9642983  34.6326878  70.1042630  55.4529805
  34.6215519  69.7095428  54.5810309  34.7947518  69.3708702  56.0463576
  27.5558343  72.2994446  48.3224711  28.3479635  71.9585271  47.9071010
  27.7954993  72.4089421  49.2426864  35.5893470  74.4714222  40.7954955
  34.9381449  75.0568303  40.4088969  36.3837832  75.0020417  40.8549993
  29.5149097  71.5603359  41.1942090  30.2879973  71.0132347  41.0554965
  29.8674496  72.4247609  41.4056551  31.3534139  72.8879742  54.4008989
  31.0624005  73.7925373  54.2855655  31.9891124  72.9296269  55.1153059
  32.2790346  70.2656590  50.9910349  32.8753918  70.0412613  50.2767312
  32.3365318  69.5241336  51.5935796  31.8515375  67.7196026  38.8260540
  32.1040895  67.1977547  38.0644003  30.9139934  67.5562171  38.9287223
  36.8958657  66.7231804  46.6335283  37.6821747  66.3051227  46.2825700
  37.1597362  67.6277896  46.8016931  37.0668735  72.1604654  41.3323940
  36.4314568  72.2339281  42.0444844  36.7366141  72.7498253  40.6543019
  42.2967084  66.6607037  47.5368261  43.0292256  66.0906254  47.7706091
  41.5406440  66.2728638  47.9774767  31.5711663  69.6224131  41.0284915
  31.4547921  68.9469035  41.6965999  31.6813923  69.1356505  40.2117068
  33.9143204  69.0834279  44.7331604  33.5501411  68.5564900  45.4444525
  34.7710320  68.6932748  44.5598089  39.8192505  60.3728611  51.9962870
  39.4875830  61.2424022  51.7724085  39.2238118  60.0564895  52.6756900
  33.5548691  64.1124178  39.7292952  33.7223093  64.9804415  40.0963423
  33.3645860  64.2751460  38.8054242  36.3124024  72.5741157  51.3958783
  36.0124747  73.4766196  51.2874590  35.9675084  72.3073340  52.2479936
  29.7636506  69.0254954  47.4295487  28.8387002  68.8931168  47.6373179
  30.0120919  69.8049173  47.9265429  39.7121168  65.0923697  49.0756220
  38.8038045  65.0239106  48.7814981  39.6608764  65.5695642  49.9038045
  33.5337912  66.5681836  40.7139619  33.4137537  67.0138887  41.5525099
  32.8390500  66.9167153  40.1553157  27.1245317  68.6688228  48.2639276
  27.2537698  68.9222707  49.1778688  26.4442768  69.2615936  47.9443931
  31.2944804  79.3385478  44.3629750  31.2168834  80.2893303  44.4418231
  30.6906448  78.9931350  45.0204677  33.7862034  66.5113343  57.0191117
  33.0095368  67.0707263  57.0093982  34.4252597  66.9970126  57.5405987
  41.5782815  63.2940136  50.8534094  40.9357195  63.5872669  50.2073888
  41.0737743  63.1793056  51.6587291  39.2322978  67.0403309  41.5419953
  40.1440834  67.2730696  41.3667651  38.7232625  67.6240353  40.9795032
  32.0408406  69.3198796  56.5809084  32.7823091  69.8583840  56.3043908
  31.3345392  69.9465085  56.7380636  37.5163746  71.4627937  55.1781246
  37.9247102  71.0210347  54.4335878  36.7941007  70.8880564  55.4315439
  33.8694816  66.4000544  52.5514803  34.7156011  66.8239957  52.6949452
  33.8093454  65.7434168  53.2453366  37.8392560  72.0229127  48.9333535
  37.2101423  72.1874842  48.2309602  37.4518223  72.4370737  49.7044499
  41.7181792  72.9583565  46.2877898  41.0332831  73.3382467  45.7374932
  41.8025642  73.5678892  47.0209846  37.0194261  64.0604912  54.2095976
  36.7755193  64.8146972  53.6730252  37.2954192  64.4390260  55.0443223
  38.9732724  70.6043524  52.8873242  39.1849619  71.2475284  52.2107623
  38.9262472  69.7705841  52.4195172  36.5758953  63.2161345  49.7909814
  35.7143432  63.5142599  50.0826552  36.6021388  63.4331744  48.8590847
  33.3920522  71.7603536  46.1983620  33.8558868  72.0391238  45.4088242
  33.1277320  70.8586980  46.0156710  30.2844603  71.3075017  49.1363383
  30.8545960  71.7362285  48.4980867  30.8752715  71.0257602  49.8347569
  32.3289408  67.8826688  43.0073185  33.0313452  68.3347732  43.4747111
  31.9970037  67.2410507  43.6353078  30.7769770  66.4738445  57.3824394
  30.1468431  67.1554725  57.6159791  30.6705858  66.3621526  56.4377532
  26.0714742  66.1410241  48.3090318  25.2813796  66.3967769  47.8330429
  26.5625990  66.9558578  48.4142359  40.0878552  73.4815480  51.0595599
  40.9095996  73.0795667  50.7778281  40.0840955  73.3783714  52.0111715
  28.0229488  66.5054820  45.2673795  27.2260651  66.6173514  45.7857291
  27.7955080  66.8441472  44.4014686  33.8535155  73.0299523  53.2156310
  33.9179588  73.4919930  54.0514482  33.1446079  72.3996888  53.3438620
  24.3552445  66.3940731  50.7405309  24.6060484  67.2787741  51.0062885
  24.8911994  66.2145333  49.9680401  48.1784545  69.8254228  47.4080571
  47.4248253  69.2561626  47.2524575  48.3132086  69.7916893  48.3551205
  33.5683173  74.6967631  43.0835290  33.4328848  75.5419166  43.5120138
  34.1092986  74.8986908  42.3201224  30.0550513  60.7759210  59.7449645
  29.6617458  60.2225409  60.4197290  30.8716653  61.0869789  60.1356163
  27.0212570  72.2143069  43.6563215  27.5337091  73.0086319  43.8068780
  27.6735283  71.5169359  43.5896817  28.8307455  75.3308825  45.7385968
  29.0074083  76.2526790  45.5506952  29.6264289  75.0167244  46.1680348
  32.9718474  62.1917089  57.3369902  33.7128187  62.7924243  57.2574364
  33.2036396  61.4494727  56.7787944  28.1159812  67.3773457  55.6148132
  28.0013327  66.4758714  55.9155230  27.2604329  67.6237153  55.2632948
  29.9538771  76.8486999  51.7396311  30.5046196  76.7204062  50.9673305
  29.1150246  77.1481888  51.3891203  37.2932887  75.5993997  55.2417033
  37.2751363  76.4202878  54.7497303  38.2152808  75.4748072  55.4667175
  33.7505942  73.1138126  56.0840542  34.2834278  72.3526415  55.8539850
  33.2220023  72.8211778  56.8264696  36.9175637  58.2198192  51.6134184
  36.5739906  59.1099834  51.5373294  37.2854599  58.0299850  50.7503769
  24.9861487  70.5431723  44.4322786  25.8236709  70.9528731  44.2156493
  25.1639755  69.6031165  44.4022980  36.8825919  68.2106803  40.1206619
  36.3672543  68.9811408  40.3595006  36.6103228  67.5371940  40.7439680
  34.4673030  63.0556504  45.1791857  33.6114627  62.6663355  44.9997496
  34.8799982  63.1348465  44.3191643  35.9972177  60.5902848  49.5783417
  35.4936973  60.5532983  48.7651222  36.2902784  61.4995590  49.6380073
  32.2415063  60.6741577  48.5849599  33.1068060  60.4784386  48.2255488
  32.3092572  60.4451929  49.5118955  41.8560193  70.9639158  42.0559792
  41.0789636  70.6250318  41.6114954  42.5351674  70.9691781  41.3814757
  36.6712222  66.0833896  41.9466400  36.3662358  66.3980045  42.7976543
  37.6242665  66.1615315  41.9893733  35.1158654  72.2424119  43.5959354
  34.5880016  71.5076878  43.2832591  34.6146157  73.0198795  43.3499322
  40.0951500  70.4373139  48.7126400  39.4375175  71.1272401  48.8006529
  40.8991900  70.8269571  49.0560386  29.8477382  62.9043785  45.9565965
  30.4221134  62.6818967  45.2239158  30.4348364  62.9732480  46.7094567
  38.9056959  68.7917512  46.7630342  39.4188841  69.4247504  47.2652052
  39.5558183  68.1918708  46.3973702  30.1746969  64.9348246  39.9761851
  29.3384281  65.2722933  40.2971125  30.0351739  64.7997226  39.0388988
  32.1500050  59.7785034  44.6841035  31.4964462  59.4634051  44.0597650
  32.1080524  59.1560775  45.4100858  33.2611255  70.0604329  36.5994327
  32.3538316  69.8293583  36.7985476  33.7582287  69.2641948  36.7868308
  36.1679333  78.7701836  39.5191013  35.4941032  79.0733533  40.1275971
  36.5545155  79.5730917  39.1696470  35.3837790  66.2666968  49.0088682
  34.4660351  66.4881915  48.8510370  35.7997934  66.3413278  48.1500390
  36.1672838  67.6658383  44.1391363  36.9144657  68.1779781  43.8298485
  36.4364427  67.3442436  44.9995756  34.4399488  70.1616924  41.1218317
  33.5310707  69.8775957  41.2190787  34.4694572  70.5816003  40.2621624
  39.6718755  73.7723514  44.8909485  39.2181082  72.9314423  44.9474675
  39.0412722  74.4084912  45.2284265  38.6151675  64.7015500  46.1210152
  37.8774432  64.1892886  46.4520395  38.8678448  64.2615881  45.3093429
  38.1151695  75.6100010  45.8259303  38.4074669  76.1705067  45.1071668
  38.6250315  75.9028571  46.5812462  38.7163302  57.4791752  46.7151921
  39.0222179  56.6189115  46.4277836  39.4415907  58.0709372  46.5150915
  25.0087658  67.8822438  45.1033519  24.8112058  67.2891799  44.3784586
  24.4534322  67.5774648  45.8209458  32.9884382  67.7745545  47.2228112
  33.0432992  66.8219381  47.1470589  32.1775584  67.9304984  47.7069411
  34.1375576  71.7025668  38.4606396  33.6995006  70.9861527  38.0012033
  34.8786017  71.9301783  37.8991487  30.9276742  66.3922604  44.9818491
  30.1144607  66.6916775  45.3883683  31.4235736  65.9978293  45.6992973
  33.0785320  76.3880361  46.9152756  33.0361499  76.6141208  45.9861288
  33.9948019  76.1543736  47.0638557  36.5250954  66.8564429  53.8133385
  36.8800341  67.0835902  54.6727851  37.1723085  67.1882806  53.1910640
  42.2548691  69.9782865  44.5182714  42.1166589  70.1684461  43.5903903
  41.8984909  70.7402248  44.9750765  30.4190817  63.9640960  50.5979726
  31.0590196  63.8229719  49.9002689  29.5868347  63.6775473  50.2218328
  42.2818070  72.0459392  49.5293986  42.7154577  71.9534681  50.3777040
  42.9949651  72.0216892  48.8914002  31.1951121  73.2643390  46.7114719
  31.9891719  72.7693710  46.5097294  30.4842813  72.7361253  46.3482424
  36.0145965  75.6461486  51.0627086  36.0682987  76.2152422  51.8304802
  35.1460746  75.8163371  50.6981123  27.5033884  67.4086472  42.7874471
  26.5731472  67.3470928  43.0044433  27.5991356  66.8862425  41.9911113
  27.4219433  63.9341285  45.3752713  27.6826250  64.8486618  45.2661873
  28.2436605  63.4665727  45.5249326  28.8944358  65.3479042  52.5451537
  29.5667412  65.1396404  51.8964186  28.0674145  65.1501128  52.1056770
  43.1433620  72.0883092  52.0626871  43.3369510  72.9928903  52.3086146
  43.0434238  71.6290511  52.8965456  34.7969930  61.9740983  54.5617198
  34.1497845  62.6730933  54.4681675  35.5670946  62.4077127  54.9293447
  38.2048728  72.2389835  57.6367752  38.0534235  72.0100387  56.7197835
  38.1953408  73.1960437  57.6499097  34.9734065  69.8121748  52.6214018
  35.9026125  69.9632908  52.4482985  34.5525095  69.9005769  51.7662665
  33.7722397  73.8372412  50.3912556  33.6333482  73.4691197  51.2638494
  32.9836993  74.3520052  50.2196513  34.3670549  78.9381509  41.7338092
  34.5422304  78.4669552  42.5483715  33.6803337  79.5647275  41.9619353
  35.3227612  73.2154015  47.7801393  34.9877444  73.1754785  48.6759043
  34.8231557  72.5498731  47.3071804  29.2971856  68.6221645  53.3053975
  29.1591654  67.8901884  53.9065514  30.2076779  68.5330545  53.0238162
  38.2586803  70.5610049  38.0538453  37.6415974  69.8356878  37.9571506
  37.7903292  71.3219410  37.7105527  31.9254156  68.3341604  52.7937654
  32.6353775  67.6934797  52.7524273  31.8823465  68.5854499  53.7163835
  39.9140935  75.2708958  55.7144233  39.8553481  74.5868178  55.0474816
  40.3160453  76.0127948  55.2624859  30.6383090  65.3206822  54.6133294
  30.1020447  64.8697561  55.2654890  30.0499799  65.4552731  53.8703758
  28.9331634  82.0870872  48.5077952  29.1728232  82.7189396  49.1856971
  28.0900830  81.7358912  48.7943312  30.0485349  64.7795474  37.1759757
  29.1714816  64.6584274  36.8122004  30.5243102  63.9881552  36.9238646
  39.9158342  73.2348542  53.9458213  39.0285121  72.8974463  54.0684612
  40.4856893  72.5031573  54.1826979  21.5687489  69.5672633  47.2701265
  22.2558529  69.2534363  46.6822280  21.4135618  70.4713998  46.9968516
  26.3722212  64.4562830  51.6986288  26.2880400  63.8488499  50.9636698
  25.5504918  64.9471848  51.6995785  33.4459496  77.8949994  50.9119456
  33.3729667  78.7004965  51.4238761  33.0036889  78.0941960  50.0867478
  33.2349275  77.1321764  44.4222278  32.4516797  77.6743444  44.5160502
  33.9342020  77.6495744  44.8216519  36.5445925  62.9416393  47.0656483
  37.0414625  62.1886356  46.7457554  35.7732907  62.9780710  46.4999693
  44.3975683  68.6456759  48.7074775  44.3865559  69.5281474  48.3368708
  43.5293062  68.2928310  48.5129312  35.9058179  77.7936828  53.0677615
  36.6186151  78.4284293  52.9953516  35.4148208  77.8900694  52.2517617
  37.6275706  71.6988081  44.6394907  36.6931985  71.8189543  44.4699611
  37.8052375  70.7960547  44.3754917  33.1280894  65.0833776  46.7928168
  32.7578682  64.5304817  47.4809073  33.6239987  64.4791910  46.2403168
  41.0148257  67.5405400  45.1744941  41.4808710  68.3733392  45.1005243
  41.4655758  67.0750382  45.8790199  30.9570093  75.5431271  53.8883186
  31.6579552  76.1767754  54.0412580  30.4865208  75.8846003  53.1278825
  39.0824489  73.8849221  42.1731093  39.3584332  73.7705816  43.0824967
  38.2128987  73.4866706  42.1343266  38.9864920  59.9085987  49.2135842
  38.0728000  60.1390214  49.3818049  39.4158022  59.9924431  50.0649875
  38.7571379  68.0975879  51.7135736  38.1042829  68.3451786  51.0588189
  39.1351759  67.2840017  51.3798213  35.7178553  78.1335572  45.8163906
  35.9000947  77.3157228  46.2791659  36.5411539  78.3503264  45.3788796
  36.0520718  77.0603757  43.0778955  36.5808485  76.5496212  42.4649117
  36.3148938  76.7446287  43.9424488  34.8058952  68.8395690  58.2001773
  34.1299589  68.7389819  58.8704148  35.6286586  68.6834904  58.6637770
  26.5537811  75.0767627  50.8214288  27.1391248  74.3311314  50.9542193
  26.3562649  75.3871583  51.7050952  29.4076466  78.1118874  45.8376731
  28.7386841  78.5965002  45.3540771  29.2689336  78.3588094  46.7520109
  21.1455466  67.6473227  49.5418732  21.1839565  67.1136817  50.3355850
  20.6395758  67.1208432  48.9229709  33.5481735  80.1462617  52.4359389
  34.1000043  80.3094239  53.2008474  33.8887928  80.7367055  51.7639414
  28.5246228  62.4937767  53.0381274  28.5887554  63.3552598  52.6258672
  28.4613348  61.8811769  52.3053632  27.9998500  64.5660900  56.6854308
  28.6270539  64.1837977  57.2991833  27.1426419  64.3475102  57.0510001
  24.7764043  66.3737329  42.6172663  25.0717484  65.4648007  42.5639717
  23.8752079  66.3525068  42.2953665  36.6850122  78.0944593  49.4223071
  36.5601261  77.2934333  48.9134017  37.3429213  78.5890786  48.9337041
  28.3058290  64.4493325  48.6000212  27.5844876  65.0629293  48.4607685
  29.0951546  64.9851090  48.5216858  38.7485030  75.8953613  51.0502621
  37.8015366  75.7758964  50.9780948  39.0967803  75.0076111  51.1328883
  31.1084604  61.7847752  54.8740863  31.6319005  62.0310049  55.6367173
  30.8896937  62.6167787  54.4544001  26.5051885  64.0551427  42.7411988
  26.1764591  63.1748805  42.5587094  26.8591255  63.9999095  43.6288377
  35.7531464  75.6906329  47.2506974  35.6056426  74.7623037  47.4314544
  36.5784957  75.7126420  46.7664049  29.6193708  64.3424396  43.1087466
  29.9589780  64.8710318  42.3866074  30.0665828  64.6804802  43.8846032
  39.3565585  76.5134888  48.3371846  40.2812133  76.3077749  48.1996298
  39.1880889  76.2651289  49.2461188  32.3137149  62.7261447  52.5590534
  31.9733969  61.9269260  52.9611214  31.6076155  63.0263158  51.9867367
  32.9653621  59.8110759  51.0117857  33.7879690  59.3371238  50.8896747
  33.2091684  60.5901243  51.5116543  31.6061855  62.8399018  41.3080759
  32.3270218  63.2180271  40.8044475  30.9827159  63.5587895  41.4115737
  35.7492978  63.5444167  42.2439091  35.9656592  64.4268805  41.9427919
  35.2687045  63.1530380  41.5144733  30.4892199  66.5029880  48.8209836
  30.3436780  66.8170183  49.7134117  30.0117403  67.1214780  48.2680734
  32.3488582  63.4932428  48.8690725  32.3350151  62.5973521  48.5323023
  33.0661010  63.5003092  49.5029011  34.2014713  63.9269768  50.9143853
  33.9432491  64.8486839  50.9128183  33.6699753  63.5300203  51.6044317
  39.1460902  77.0320555  43.6933938  39.3197779  76.4666978  42.9407790
  39.6389793  77.8321450  43.5113428  24.9637861  69.0435225  51.7597497
  24.4191330  69.8195032  51.8917771  25.8417211  69.3906029  51.6016618
  31.7525478  62.3746808  44.1378295  31.8741389  61.4463455  44.3369183
  31.4627520  62.3885494  43.2256611  34.6216668  60.0601719  47.2745015
  34.6438365  60.1241052  46.3196995  35.0384727  59.2206227  47.4685521
  45.0000293  69.7956978  45.3124238  45.4431439  69.0464304  44.9143361
  44.1226803  69.7867115  44.9297970  40.1336074  76.3487320  40.7930836
  40.8286979  76.9694013  41.0118151  40.4759224  75.4982671  41.0683214
  25.7503883  68.1705121  54.6527654  25.0085619  68.3187756  55.2392284
  25.4296628  68.4313386  53.7894403  42.0327497  73.7987025  42.3218167
  42.5578821  74.1374298  41.5967487  41.9449850  72.8634041  42.1381302
  33.6947546  77.7121099  54.4508044  34.0034672  77.4670246  55.3230743
  34.4923028  77.9167737  53.9626914  33.7168158  79.8659009  46.6813420
  33.2773148  79.3735387  47.3746277  34.4676275  79.3231976  46.4405495
  26.1960497  76.0570550  46.6838048  27.0218517  75.7574321  46.3036692
  25.8454549  75.2878172  47.1327837  31.1642030  75.4097018  48.7535722
  30.5422039  74.7467723  48.4537950  31.8346897  75.4358150  48.0709370
  24.3969102  73.9756876  47.6426982  23.5601010  73.5479050  47.4610983
  24.3692747  74.1689319  48.5797773  31.2366558  63.8878806  58.3468228
  31.2854713  64.7640929  57.9645997  31.7789072  63.3456199  57.7739871
  41.7221403  74.4319929  57.6269365  40.9316947  74.4144068  57.0873864
  41.4854758  74.9708223  58.3818402  41.8419278  71.2812395  54.9402093
  41.8917283  71.1162403  55.8817616  41.7333202  70.4139654  54.5499974
  30.7255537  73.9600941  42.2294182  30.8743657  74.6436405  41.5760855
  31.5321981  73.9406031  42.7443638  39.1323041  67.2643323  56.2561400
  40.0332904  67.1249788  55.9645398  39.2071015  67.4297778  57.1959578
  33.4665846  64.6410178  55.1014587  32.5969155  64.9343744  54.8297175
  33.7025326  65.2250623  55.8221850  43.3437475  73.7009337  55.1844115
  43.0522283  74.0639317  56.0207576  42.7309606  72.9876345  55.0057447
  44.5433158  71.2662217  47.7046685  45.3780049  71.7052021  47.8684246
  44.6792286  70.7900870  46.8854931  41.5924663  68.8241952  53.6524173
  42.0678785  69.0169598  52.8443024  40.6690229  68.8801137  53.4067557
  28.4808170  69.9866119  43.2355251  28.2354212  69.0828449  43.4335461
  28.6504085  69.9883269  42.2934729  36.1704880  60.8589795  52.6180007
  36.6886824  61.5950822  52.2926495  35.8160013  61.1653788  53.4526766
  27.7503818  65.7194476  40.7341413  27.0573063  65.7938831  40.0781449
  27.5055569  64.9554820  41.2562930  36.4217474  57.2790078  48.1380903
  36.7019228  56.6113267  48.7641330  37.2068081  57.4719173  47.6255567
  34.2250943  76.4549072  39.7005930  33.6524910  77.0739259  39.2476402
  34.7983736  77.0048433  40.2345852  40.2926332  65.7007712  51.8852479
  41.2443755  65.8005809  51.9064703  40.1229783  64.9085980  52.3950563
  38.3140712  62.7863295  52.0711880  37.7190644  63.0668308  51.3758368
  38.0290409  63.2757196  52.8428621  37.4448202  76.7386222  40.8314512
  38.3778876  76.6731783  41.0347388  37.3571415  77.5742489  40.3729045
  40.0736219  76.0552092  37.7918460  39.9949851  75.7211956  38.6854218
  40.8945886  76.5473860  37.7909932  42.7714410  68.9213831  50.9994778
  42.7390730  67.9829832  51.1854462  43.3815034  68.9997868  50.2660603
  34.6097741  67.7909884  37.0421982  35.5556846  67.6616092  37.1110400
  34.2311986  67.0524546  37.5191410  42.9208899  65.7124875  51.0453061
  42.4047947  64.9283331  50.8582990  43.8048847  65.3843591  51.2099581
  40.5819626  59.4565890  47.0048874  40.3844447  59.1480979  47.8892206
  41.1919331  60.1827529  47.1346804  48.5890960  69.9829838  50.1400815
  49.3194349  69.7215126  50.7008518  47.9797906  69.2458560  50.1802883
  46.6706257  68.1237701  50.7375266  45.9439421  67.9893666  50.1291758
  46.2553544  68.4314529  51.5431984  34.4936434  71.8427630  58.5022639
  35.4139443  72.0206229  58.6962686  34.4586017  70.8983676  58.3502339
  32.7940658  65.7159861  36.9776868  31.8872114  65.4192973  37.0539581
  33.0716639  65.4189679  36.1111154  23.7118599  67.0366224  47.4275914
  23.3921383  66.1831532  47.1350288  23.1652027  67.2514802  48.1833881
  27.4898506  69.7528665  51.1445420  27.7084516  70.6845773  51.1633454
  27.9024280  69.3936639  51.9300224  34.4102724  60.2596750  43.1321109
  33.6003452  59.9143835  43.5076355  35.0987141  59.9504294  43.7208720
  36.3393272  59.3374797  44.7545405  36.8924311  59.7570251  45.4135429
  36.5763359  58.4110545  44.7968361  32.3626371  65.3261871  60.5348169
  32.2623098  66.2756228  60.4660260  32.1447914  64.9980110  59.6624239
  31.5639443  62.5746796  37.1188847  32.4258607  62.9001694  37.3784664
  31.7489787  61.7878292  36.6061913  23.5806859  70.6569136  49.3969036
  22.8870330  70.2423088  48.8838990  24.3279850  70.6989672  48.8002454
  39.7172079  61.4475322  44.2624070  39.1370748  62.1060126  43.8802122
  39.4508012  60.6252667  43.8511487  38.1675646  60.8480380  46.4645390
  38.6675424  60.9596915  45.6559709  38.8111254  60.5441433  47.1046198
  32.2257642  68.7559010  59.3513231  31.7424723  69.5559370  59.5577120
  32.3118581  68.7666955  58.3980675  25.4943601  70.5887389  47.2735050
  25.4714289  70.6875077  46.3216933  25.8044238  71.4352540  47.5952217
  28.1530979  72.6463544  51.3881665  29.1074233  72.6147487  51.3211596
  27.9543503  72.1854168  52.2031891  28.7430361  71.2164660  53.9552462
  29.5623250  71.7108739  53.9787300  29.0167169  70.2996629  53.9270030
  38.4996957  63.6075413  43.3180418  37.6122812  63.8925063  43.1000613
  38.9150946  63.4469176  42.4707695  41.8511493  63.6321934  47.0334757
  42.6271884  64.1218386  47.3059374  41.1259628  64.0579988  47.4906627
  44.2884052  64.3449553  48.0908698  44.8828543  64.1045289  47.3802006
  44.3610636  63.6256684  48.7182234  26.5081208  78.1883164  48.4051863
  26.3735676  77.4283565  47.8389861  26.0913270  78.9124064  47.9380652
  37.6440171  73.3720087  37.4128438  38.3476021  73.5770090  38.0286094
  36.9202820  73.9396849  37.6777521  38.4737981  69.1229949  43.5330708
  38.4173182  69.5798500  42.6938341  39.0266324  68.3620633  43.3553551
  42.2842787  64.9119681  44.3580828  42.0279721  64.5116316  45.1889035
  41.6595655  65.6263474  44.2330967  46.5955125  67.6515754  46.8652119
  46.0354683  67.7208943  47.6383681  45.9898628  67.4756738  46.1451615
  29.6650334  79.0852481  48.6170305  29.5482718  80.0297913  48.5148996
  28.8442780  78.7826042  49.0056105  39.5526868  73.8102617  39.4626898
  40.3872472  73.3783815  39.2804373  39.3911211  73.6384630  40.3903792
  39.2072760  70.3134730  40.8283237  39.1521564  70.1479001  39.8871681
  38.5818816  71.0210763  40.9845427  23.9965275  65.5502794  54.6544660
  24.6424139  65.0401748  55.1431885  23.7882427  66.2871476  55.2288085
  32.5168886  59.8142839  40.4068556  32.5047556  60.7584679  40.5636827
  33.4092308  59.6312984  40.1128017  30.6904848  79.7380743  51.8326234
  31.5932095  79.7704353  52.1492729  30.4642218  78.8081194  51.8472570
  32.4458450  78.4911729  48.4936312  31.4954081  78.4913591  48.3800685
  32.7490936  77.7444464  47.9772347  36.3321005  56.4085616  44.6614493
  35.5653401  55.8544102  44.8071175  36.7431710  56.4807484  45.5228644
  28.3362766  62.6970411  58.7519674  29.1994228  62.3407216  58.9622998
  27.7628177  62.3584306  59.4395078  48.1811143  84.3272268  49.5582075
  48.8189553  84.2079015  48.8545415  48.0631986  85.2753112  49.6170027
  44.9900850  84.2799696  49.4943599  44.6519361  84.1640761  48.6064134
  45.8590618  83.8790861  49.4744606  40.8487665  86.1335172  45.4840490
  40.2852530  86.0425109  44.7156778  40.7340060  85.3135077  45.9642983
  45.4720633  85.4334548  55.4529805  45.4609273  85.0387346  54.5810309
  45.6341272  84.7000620  56.0463576  38.3952097  87.6286364  48.3224711
  39.1873389  87.2877188  47.9071010  38.6348747  87.7381339  49.2426864
  46.4287224  89.8006140  40.7954955  45.7775204  90.3860220  40.4088969
  47.2231587  90.3312335  40.8549993  40.3542851  86.8895277  41.1942090
  41.1273727  86.3424264  41.0554965  40.7068250  87.7539526  41.4056551
  42.1927894  88.2171659  54.4008989  41.9017760  89.1217290  54.2855655
  42.8284878  88.2588187  55.1153059  43.1184101  85.5948508  50.9910349
  43.7147673  85.3704530  50.2767312  43.1759072  84.8533253  51.5935796
  42.6909129  83.0487943  38.8260540  42.9434650  82.5269464  38.0644003
  41.7533688  82.8854089  38.9287223  47.7352412  82.0523722  46.6335283
  48.5215501  81.6343145  46.2825700  47.9991116  82.9569814  46.8016931
  47.9062489  87.4896572  41.3323940  47.2708322  87.5631198  42.0444844
  47.5759896  88.0790171  40.6543019  53.1360839  81.9898955  47.5368261
  53.8686011  81.4198172  47.7706091  52.3800195  81.6020555  47.9774767
  42.4105418  84.9516049  41.0284915  42.2941676  84.2760953  41.6965999
  42.5207678  84.4648423  40.2117068  44.7536959  84.4126196  44.7331604
  44.3895166  83.8856817  45.4444525  45.6104075  84.0224665  44.5598089
  50.6586259  75.7020529  51.9962870  50.3269584  76.5715940  51.7724085
  50.0631873  75.3856813  52.6756900  44.3942446  79.4416096  39.7292952
  44.5616848  80.3096332  40.0963423  44.2039615  79.6043378  38.8054242
  47.1517779  87.9033075  51.3958783  46.8518502  88.8058114  51.2874590
  46.8068838  87.6365258  52.2479936  40.6030260  84.3546872  47.4295487
  39.6780757  84.2223086  47.6373179  40.8514673  85.1341091  47.9265429
  50.5514923  80.4215615  49.0756220  49.6431800  80.3531023  48.7814981
  50.5002518  80.8987560  49.9038045  44.3731667  81.8973753  40.7139619
  44.2531292  82.3430804  41.5525099  43.6784255  82.2459071  40.1553157
  37.9639071  83.9980145  48.2639276  38.0931452  84.2514624  49.1778688
  37.2836523  84.5907853  47.9443931  42.1338559  94.6677395  44.3629750
  42.0562588  95.6185220  44.4418231  41.5300202  94.3223268  45.0204677
  44.6255788  81.8405261  57.0191117  43.8489122  82.3999181  57.0093982
  45.2646351  82.3262044  57.5405987  52.4176569  78.6232053  50.8534094
  51.7750949  78.9164587  50.2073888  51.9131498  78.5084974  51.6587291
  50.0716733  82.3695227  41.5419953  50.9834589  82.6022613  41.3667651
  49.5626380  82.9532271  40.9795032  42.8802161  84.6490714  56.5809084
  43.6216845  85.1875758  56.3043908  42.1739146  85.2757003  56.7380636
  48.3557500  86.7919854  55.1781246  48.7640856  86.3502265  54.4335878
  47.6334762  86.2172482  55.4315439  44.7088570  81.7292461  52.5514803
  45.5549766  82.1531875  52.6949452  44.6487208  81.0726086  53.2453366
  48.6786315  87.3521045  48.9333535  48.0495177  87.5166759  48.2309602
  48.2911977  87.7662655  49.7044499  52.5575547  88.2875483  46.2877898
  51.8726585  88.6674384  45.7374932  52.6419396  88.8970810  47.0209846
  47.8588016  79.3896830  54.2095976  47.6148948  80.1438890  53.6730252
  48.1347946  79.7682177  55.0443223  49.8126478  85.9335442  52.8873242
  50.0243374  86.5767202  52.2107623  49.7656227  85.0997759  52.4195172
  47.4152707  78.5453263  49.7909814  46.5537186  78.8434516  50.0826552
  47.4415142  78.7623662  48.8590847  44.2314277  87.0895453  46.1983620
  44.6952622  87.3683156  45.4088242  43.9671075  86.1878898  46.0156710
  41.1238358  86.6366935  49.1363383  41.6939715  87.0654203  48.4980867
  41.7146470  86.3549519  49.8347569  43.1683163  83.2118606  43.0073185
  43.8707206  83.6639649  43.4747111  42.8363791  82.5702424  43.6353078
  41.6163524  81.8030362  57.3824394  40.9862185  82.4846643  57.6159791
  41.5099612  81.6913444  56.4377532  36.9108497  81.4702158  48.3090318
  36.1207551  81.7259687  47.8330429  37.4019744  82.2850496  48.4142359
  50.9272306  88.8107397  51.0595599  51.7489750  88.4087585  50.7778281
  50.9234709  88.7075632  52.0111715  38.8623242  81.8346737  45.2673795
  38.0654406  81.9465432  45.7857291  38.6348834  82.1733390  44.4014686
  44.6928910  88.3591441  53.2156310  44.7573342  88.8211848  54.0514482
  43.9839834  87.7288806  53.3438620  35.1946200  81.7232649  50.7405309
  35.4454238  82.6079659  51.0062885  35.7305748  81.5437250  49.9680401
  59.0178299  85.1546146  47.4080571  58.2642008  84.5853544  47.2524575
  59.1525841  85.1208810  48.3551205  44.4076928  90.0259548  43.0835290
  44.2722602  90.8711084  43.5120138  44.9486740  90.2278826  42.3201224
  37.8606325  87.5434986  43.6563215  38.3730845  88.3378236  43.8068780
  38.5129038  86.8461277  43.5896817  39.6701210  90.6600742  45.7385968
  39.8467838  91.5818707  45.5506952  40.4658043  90.3459162  46.1680348
  43.8112228  77.5209007  57.3369902  44.5521942  78.1216160  57.2574364
  44.0430151  76.7786645  56.7787944  38.9553566  82.7065374  55.6148132
  38.8407081  81.8050632  55.9155230  38.0998084  82.9529071  55.2632948
  46.0345404  90.6483115  57.2135632  45.5909258  89.8619493  56.8956537
  46.6962617  90.8362265  56.5479523  40.7932525  92.1778916  51.7396311
  41.3439950  92.0495980  50.9673305  39.9544001  92.4773805  51.3891203
  48.1326642  90.9285915  55.2417033  48.1145117  91.7494796  54.7497303
  49.0546562  90.8039990  55.4667175  44.5899696  88.4430044  56.0840542
  45.1228033  87.6818332  55.8539850  44.0613777  88.1503696  56.8264696
  47.7569391  73.5490110  51.6134184  47.4133660  74.4391752  51.5373294
  48.1248354  73.3591768  50.7503769  35.8255242  85.8723641  44.4322786
  36.6630464  86.2820649  44.2156493  36.0033509  84.9323083  44.4022980
  47.7219674  83.5398721  40.1206619  47.2066297  84.3103326  40.3595006
  47.4496982  82.8663857  40.7439680  45.3066785  78.3848422  45.1791857
  44.4508381  77.9955272  44.9997496  45.7193737  78.4640383  44.3191643
  46.8365931  75.9194765  49.5783417  46.3330727  75.8824900  48.7651222
  47.1296538  76.8287508  49.6380073  43.0808817  76.0033495  48.5849599
  43.9461814  75.8076304  48.2255488  43.1486326  75.7743847  49.5118955
  52.6953948  86.2931076  42.0559792  51.9183391  85.9542235  41.6114954
  53.3745429  86.2983699  41.3814757  47.5105977  81.4125813  41.9466400
  47.2056113  81.7271962  42.7976543  48.4636419  81.4907233  41.9893733
  45.9552409  87.5716037  43.5959354  45.4273770  86.8368796  43.2832591
  45.4539912  88.3490713  43.3499322  50.9345255  85.7665057  48.7126400
  50.2768929  86.4564318  48.8006529  51.7385654  86.1561489  49.0560386
  40.6871136  78.2335703  45.9565965  41.2614888  78.0110884  45.2239158
  41.2742119  78.3024397  46.7094567  49.7450714  84.1209430  46.7630342
  50.2582595  84.7539422  47.2652052  50.3951938  83.5210625  46.3973702
  41.0140724  80.2640164  39.9761851  40.1778036  80.6014850  40.2971125
  40.8745493  80.1289144  39.0388988  42.9893804  75.1076952  44.6841035
  42.3358216  74.7925969  44.0597650  42.9474278  74.4852692  45.4100858
  44.1005009  85.3896247  36.5994327  43.1932071  85.1585500  36.7985476
  44.5976041  84.5933866  36.7868308  47.0073088  94.0993754  39.5191013
  46.3334787  94.4025451  40.1275971  47.3938910  94.9022834  39.1696470
  46.2231545  81.5958885  49.0088682  45.3054106  81.8173832  48.8510370
  46.6391688  81.6705196  48.1500390  47.0066592  82.9950301  44.1391363
  47.7538411  83.5071698  43.8298485  47.2758182  82.6734354  44.9995756
  45.2793242  85.4908842  41.1218317  44.3704462  85.2067875  41.2190787
  45.3088326  85.9107920  40.2621624  50.5112510  89.1015431  44.8909485
  50.0574837  88.2606341  44.9474675  49.8806477  89.7376830  45.2284265
  49.4545429  80.0307417  46.1210152  48.7168186  79.5184803  46.4520395
  49.7072203  79.5907799  45.3093429  48.9545449  90.9391928  45.8259303
  49.2468423  91.4996985  45.1071668  49.4644070  91.2320489  46.5812462
  49.5557057  72.8083669  46.7151921  49.8615934  71.9481033  46.4277836
  50.2809662  73.4001289  46.5150915  35.8481413  83.2114356  45.1033519
  35.6505813  82.6183717  44.3784586  35.2928077  82.9066566  45.8209458
  43.8278136  83.1037462  47.2228112  43.8826746  82.1511299  47.1470589
  43.0169339  83.2596901  47.7069411  44.9769330  87.0317585  38.4606396
  44.5388760  86.3153444  38.0012033  45.7179771  87.2593700  37.8991487
  41.7670496  81.7214522  44.9818491  40.9538362  82.0208693  45.3883683
  42.2629491  81.3270211  45.6992973  43.9179074  91.7172279  46.9152756
  43.8755253  91.9433125  45.9861288  44.8341773  91.4835654  47.0638557
  47.3644708  82.1856347  53.8133385  47.7194096  82.4127820  54.6727851
  48.0116839  82.5174723  53.1910640  53.0942445  85.3074782  44.5182714
  52.9560344  85.4976378  43.5903903  52.7378664  86.0694165  44.9750765
  41.2584571  79.2932878  50.5979726  41.8983950  79.1521637  49.9002689
  40.4262102  79.0067391  50.2218328  53.1211825  87.3751309  49.5293986
  53.5548331  87.2826599  50.3777040  53.8343405  87.3508810  48.8914002
  42.0344875  88.5935308  46.7114719  42.8285474  88.0985628  46.5097294
  41.3236567  88.0653171  46.3482424  46.8539720  90.9753404  51.0627086
  46.9076742  91.5444340  51.8304802  45.9854501  91.1455289  50.6981123
  38.3427639  82.7378390  42.7874471  37.4125227  82.6762845  43.0044433
  38.4385111  82.2154342  41.9911113  38.2613188  79.2633203  45.3752713
  38.5220005  80.1778536  45.2661873  39.0830360  78.7957645  45.5249326
  39.7338113  80.6770960  52.5451537  40.4061166  80.4688322  51.8964186
  38.9067899  80.4793046  52.1056770  53.9827374  87.4175010  52.0626871
  54.1763264  88.3220821  52.3086146  53.8827992  86.9582429  52.8965456
  45.6363685  77.3032901  54.5617198  44.9891600  78.0022850  54.4681675
  46.4064700  77.7369045  54.9293447  49.0442483  87.5681753  57.6367752
  48.8927989  87.3392305  56.7197835  49.0347162  88.5252354  57.6499097
  45.8127819  85.1413666  52.6214018  46.7419879  85.2924825  52.4482985
  45.3918849  85.2297686  51.7662665  44.6116151  89.1664330  50.3912556
  44.4727237  88.7983114  51.2638494  43.8230747  89.6811969  50.2196513
  45.2064303  94.2673426  41.7338092  45.3816059  93.7961470  42.5483715
  44.5197091  94.8939193  41.9619353  46.1621366  88.5445933  47.7801393
  45.8271199  88.5046703  48.6759043  45.6625312  87.8790649  47.3071804
  40.1365610  83.9513563  53.3053975  39.9985408  83.2193802  53.9065514
  41.0470534  83.8622463  53.0238162  49.0980558  85.8901967  38.0538453
  48.4809729  85.1648795  37.9571506  48.6297046  86.6511327  37.7105527
  42.7647911  83.6633522  52.7937654  43.4747529  83.0226714  52.7524273
  42.7217219  83.9146417  53.7163835  50.7534690  90.6000875  55.7144233
  50.6947236  89.9160096  55.0474816  51.1554208  91.3419865  55.2624859
  41.4776845  80.6498740  54.6133294  40.9414202  80.1989478  55.2654890
  40.8893553  80.7844649  53.8703758  39.7725388  97.4162789  48.5077952
  40.0121987  98.0481313  49.1856971  38.9294585  97.0650829  48.7943312
  40.8879104  80.1087391  37.1759757  40.0108570  79.9876192  36.8122004
  41.3636857  79.3173470  36.9238646  50.7552097  88.5640459  53.9458213
  49.8678876  88.2266381  54.0684612  51.3250648  87.8323491  54.1826979
  32.4081244  84.8964551  47.2701265  33.0952284  84.5826281  46.6822280
  32.2529373  85.8005916  46.9968516  37.2115966  79.7854748  51.6986288
  37.1274155  79.1780417  50.9636698  36.3898672  80.2763766  51.6995785
  44.2853250  93.2241912  50.9119456  44.2123422  94.0296883  51.4238761
  43.8430643  93.4233877  50.0867478  44.0743030  92.4613682  44.4222278
  43.2910552  93.0035362  44.5160502  44.7735775  92.9787661  44.8216519
  47.3839680  78.2708311  47.0656483  47.8808379  77.5178273  46.7457554
  46.6126661  78.3072628  46.4999693  55.2369437  83.9748677  48.7074775
  55.2259314  84.8573392  48.3368708  54.3686817  83.6220228  48.5129312
  46.7451934  93.1228746  53.0677615  47.4579906  93.7576211  52.9953516
  46.2541962  93.2192612  52.2517617  48.4669461  87.0279998  44.6394907
  47.5325739  87.1481461  44.4699611  48.6446129  86.1252465  44.3754917
  43.9674649  80.4125694  46.7928168  43.5972436  79.8596735  47.4809073
  44.4633741  79.8083828  46.2403168  51.8542012  82.8697318  45.1744941
  52.3202464  83.7025309  45.1005243  52.3049512  82.4042299  45.8790199
  41.7963847  90.8723189  53.8883186  42.4973307  91.5059672  54.0412580
  41.3258962  91.2137921  53.1278825  49.9218243  89.2141139  42.1731093
  50.1978087  89.0997734  43.0824967  49.0522742  88.8158624  42.1343266
  49.8258675  75.2377905  49.2135842  48.9121755  75.4682131  49.3818049
  50.2551776  75.3216349  50.0649875  49.5965133  83.4267797  51.7135736
  48.9436583  83.6743704  51.0588189  49.9745513  82.6131935  51.3798213
  46.5572307  93.4627490  45.8163906  46.7394702  92.6449146  46.2791659
  47.3805293  93.6795182  45.3788796  46.8914473  92.3895675  43.0778955
  47.4202239  91.8788130  42.4649117  47.1542692  92.0738205  43.9424488
  45.6452706  84.1687608  58.2001773  44.9693343  84.0681737  58.8704148
  46.4680340  84.0126821  58.6637770  37.3931565  90.4059544  50.8214288
  37.9785002  89.6603232  50.9542193  37.1956404  90.7163501  51.7050952
  40.2470221  93.4410792  45.8376731  39.5780596  93.9256919  45.3540771
  40.1083090  93.6880012  46.7520109  31.9849220  82.9765144  49.5418732
  32.0233320  82.4428735  50.3355850  31.4789513  82.4500350  48.9229709
  44.3875489  95.4754535  52.4359389  44.9393797  95.6386157  53.2008474
  44.7281683  96.0658973  51.7639414  39.3639982  77.8229685  53.0381274
  39.4281309  78.6844516  52.6258672  39.3007103  77.2103687  52.3053632
  38.8392255  79.8952817  56.6854308  39.4664294  79.5129895  57.2991833
  37.9820174  79.6767019  57.0510001  49.2386363  90.3015793  58.2908044
  49.7826267  90.9145751  57.7962998  48.6573208  90.8595371  58.8075057
  35.6157798  81.7029247  42.6172663  35.9111239  80.7939925  42.5639717
  34.7145833  81.6816986  42.2953665  47.5243876  93.4236511  49.4223071
  47.3995016  92.6226250  48.9134017  48.1822968  93.9182704  48.9337041
  39.1452045  79.7785243  48.6000212  38.4238630  80.3921211  48.4607685
  39.9345300  80.3143008  48.5216858  49.5878785  91.2245531  51.0502621
  48.6409120  91.1050882  50.9780948  49.9361558  90.3368029  51.1328883
  41.9478358  77.1139670  54.8740863  42.4712760  77.3601966  55.6367173
  41.7290691  77.9459704  54.4544001  37.3445639  79.3843344  42.7411988
  37.0158345  78.5040723  42.5587094  37.6985010  79.3291013  43.6288377
  46.5925218  91.0198247  47.2506974  46.4450181  90.0914954  47.4314544
  47.4178712  91.0418338  46.7664049  40.4587462  79.6716314  43.1087466
  40.7983535  80.2002235  42.3866074  40.9059583  80.0096720  43.8846032
  50.1959340  91.8426806  48.3371846  51.1205887  91.6369667  48.1996298
  50.0274643  91.5943207  49.2461188  43.1530903  78.0553365  52.5590534
  42.8127724  77.2561178  52.9611214  42.4469909  78.3555076  51.9867367
  43.8047375  75.1402677  51.0117857  44.6273444  74.6663155  50.8896747
  44.0485439  75.9193161  51.5116543  42.4455610  78.1690936  41.3080759
  43.1663972  78.5472188  40.8044475  41.8220914  78.8879812  41.4115737
  46.5886732  78.8736085  42.2439091  46.8050347  79.7560722  41.9427919
  46.1080800  78.4822298  41.5144733  41.3285954  81.8321798  48.8209836
  41.1830534  82.1462101  49.7134117  40.8511157  82.4506698  48.2680734
  43.1882337  78.8224346  48.8690725  43.1743905  77.9265439  48.5323023
  43.9054765  78.8295010  49.5029011  45.0408467  79.2561686  50.9143853
  44.7826245  80.1778757  50.9128183  44.5093508  78.8592121  51.6044317
  49.9854656  92.3612473  43.6933938  50.1591534  91.7958896  42.9407790
  50.4783547  93.1613368  43.5113428  35.8031616  84.3727142  51.7597497
  35.2585084  85.1486950  51.8917771  36.6810966  84.7197947  51.6016618
  42.5919233  77.7038726  44.1378295  42.7135144  76.7755372  44.3369183
  42.3021275  77.7177412  43.2256611  45.4610423  75.3893637  47.2745015
  45.4832120  75.4532970  46.3196995  45.8778482  74.5498145  47.4685521
  55.8394047  85.1248896  45.3124238  56.2825193  84.3756221  44.9143361
  54.9620558  85.1159032  44.9297970  50.9729829  91.6779238  40.7930836
  51.6680733  92.2985930  41.0118151  51.3152979  90.8274589  41.0683214
  36.5897638  83.4997038  54.6527654  35.8479374  83.6479674  55.2392284
  36.2690382  83.7605304  53.7894403  52.8721252  89.1278943  42.3218167
  53.3972576  89.4666216  41.5967487  52.7843604  88.1925958  42.1381302
  44.5341300  93.0413017  54.4508044  44.8428427  92.7962163  55.3230743
  45.3316782  93.2459655  53.9626914  44.5561912  95.1950926  46.6813420
  44.1166903  94.7027305  47.3746277  45.3070029  94.6523894  46.4405495
  37.0354251  91.3862467  46.6838048  37.8612271  91.0866239  46.3036692
  36.6848303  90.6170090  47.1327837  42.0035785  90.7388935  48.7535722
  41.3815794  90.0759640  48.4537950  42.6740652  90.7650067  48.0709370
  35.2362857  89.3048794  47.6426982  34.3994765  88.8770968  47.4610983
  35.2086502  89.4981237  48.5797773  42.0760312  79.2170723  58.3468228
  42.1248468  80.0932846  57.9645997  42.6182826  78.6748116  57.7739871
  52.5615158  89.7611847  57.6269365  51.7710702  89.7435986  57.0873864
  52.3248512  90.3000140  58.3818402  52.6813033  86.6104313  54.9402093
  52.7311038  86.4454321  55.8817616  52.5726956  85.7431572  54.5499974
  41.5649292  89.2892859  42.2294182  41.7137412  89.9728323  41.5760855
  42.3715735  89.2697949  42.7443638  49.9716795  82.5935241  56.2561400
  50.8726658  82.4541706  55.9645398  50.0464770  82.7589696  57.1959578
  44.3059601  79.9702096  55.1014587  43.4362910  80.2635662  54.8297175
  44.5419081  80.5542541  55.8221850  54.1831230  89.0301255  55.1844115
  53.8916038  89.3931235  56.0207576  53.5703361  88.3168263  55.0057447
  55.3826912  86.5954134  47.7046685  56.2173803  87.0343938  47.8684246
  55.5186041  86.1192788  46.8854931  52.4318418  84.1533869  53.6524173
  52.9072540  84.3461516  52.8443024  51.5083983  84.2093055  53.4067557
  39.3201925  85.3158036  43.2355251  39.0747966  84.4120366  43.4335461
  39.4897839  85.3175187  42.2934729  47.0098634  76.1881713  52.6180007
  47.5280578  76.9242740  52.2926495  46.6553767  76.4945706  53.4526766
  38.5897572  81.0486394  40.7341413  37.8966817  81.1230749  40.0781449
  38.3449324  80.2846738  41.2562930  47.2611229  72.6081995  48.1380903
  47.5412982  71.9405184  48.7641330  48.0461835  72.8011091  47.6255567
  45.0644697  91.7840989  39.7005930  44.4918664  92.4031176  39.2476402
  45.6377491  92.3340351  40.2345852  51.1320087  81.0299629  51.8852479
  52.0837510  81.1297727  51.9064703  50.9623537  80.2377898  52.3950563
  49.1534466  78.1155213  52.0711880  48.5584399  78.3960225  51.3758368
  48.8684163  78.6049113  52.8428621  48.2841957  92.0678139  40.8314512
  49.2172630  92.0023701  41.0347388  48.1965170  92.9034406  40.3729045
  50.9129974  91.3844010  37.7918460  50.8343605  91.0503873  38.6854218
  51.7339640  91.8765778  37.7909932  53.6108165  84.2505749  50.9994778
  53.5784485  83.3121750  51.1854462  54.2208788  84.3289786  50.2660603
  45.4491496  83.1201802  37.0421982  46.3950600  82.9908010  37.1110400
  45.0705741  82.3816464  37.5191410  53.7602653  81.0416792  51.0453061
  53.2441702  80.2575249  50.8582990  54.6442602  80.7135509  51.2099581
  51.4213380  74.7857808  47.0048874  51.2238201  74.4772896  47.8892206
  52.0313086  75.5119447  47.1346804  59.4284715  85.3121756  50.1400815
  60.1588103  85.0507044  50.7008518  58.8191660  84.5750478  50.1802883
  57.5100012  83.4529618  50.7375266  56.7833175  83.3185583  50.1291758
  57.0947299  83.7606447  51.5431984  45.3330188  87.1719548  58.5022639
  46.2533198  87.3498147  58.6962686  45.2979771  86.2275593  58.3502339
  43.6334413  81.0451778  36.9776868  42.7265868  80.7484891  37.0539581
  43.9110394  80.7481596  36.1111154  34.5512353  82.3658142  47.4275914
  34.2315137  81.5123450  47.1350288  34.0045781  82.5806720  48.1833881
  38.3292261  85.0820583  51.1445420  38.5478270  86.0137691  51.1633454
  38.7418034  84.7228557  51.9300224  45.2496478  75.5888668  43.1321109
  44.4397207  75.2435753  43.5076355  45.9380895  75.2796212  43.7208720
  47.1787027  74.6666715  44.7545405  47.7318065  75.0862168  45.4135429
  47.4157113  73.7402463  44.7968361  43.2020126  80.6553789  60.5348169
  43.1016853  81.6048145  60.4660260  42.9841668  80.3272027  59.6624239
  42.4033197  77.9038714  37.1188847  43.2652361  78.2293612  37.3784664
  42.5883542  77.1170209  36.6061913  34.4200613  85.9861053  49.3969036
  33.7264085  85.5715006  48.8838990  35.1673604  86.0281590  48.8002454
  50.5565834  76.7767240  44.2624070  49.9764503  77.4352044  43.8802122
  50.2901767  75.9544585  43.8511487  49.0069400  76.1772298  46.4645390
  49.5069179  76.2888832  45.6559709  49.6505008  75.8733351  47.1046198
  43.0651396  84.0850927  59.3513231  42.5818478  84.8851287  59.5577120
  43.1512335  84.0958872  58.3980675  36.3337356  85.9179307  47.2735050
  36.3108044  86.0166994  46.3216933  36.6437992  86.7644458  47.5952217
  38.9924734  87.9755462  51.3881665  39.9467987  87.9439404  51.3211596
  38.7937257  87.5146086  52.2031891  39.5824116  86.5456578  53.9552462
  40.4017005  87.0400657  53.9787300  39.8560923  85.6288546  53.9270030
  49.3390712  78.9367330  43.3180418  48.4516567  79.2216981  43.1000613
  49.7544701  78.7761094  42.4707695  52.6905248  78.9613851  47.0334757
  53.4665638  79.4510304  47.3059374  51.9653382  79.3871906  47.4906627
  55.1277807  79.6741471  48.0908698  55.7222297  79.4337207  47.3802006
  55.2004390  78.9548601  48.7182234  37.3474962  93.5175082  48.4051863
  37.2129430  92.7575482  47.8389861  36.9307025  94.2415981  47.9380652
  48.4833925  88.7012005  37.4128438  49.1869775  88.9062008  38.0286094
  47.7596574  89.2688767  37.6777521  49.3131736  84.4521866  43.5330708
  49.2566937  84.9090418  42.6938341  49.8660078  83.6912551  43.3553551
  53.1236542  80.2411598  44.3580828  52.8673476  79.8408234  45.1889035
  52.4989410  80.9555392  44.2330967  57.4348879  82.9807671  46.8652119
  56.8748437  83.0500861  47.6383681  56.8292383  82.8048656  46.1451615
  40.5044088  94.4144399  48.6170305  40.3876472  95.3589831  48.5148996
  39.6836534  94.1117960  49.0056105  50.3920623  89.1394534  39.4626898
  51.2266227  88.7075733  39.2804373  50.2304966  88.9676548  40.3903792
  50.0466515  85.6426648  40.8283237  49.9915319  85.4770919  39.8871681
  49.4212570  86.3502681  40.9845427  34.8359030  80.8794712  54.6544660
  35.4817893  80.3693666  55.1431885  34.6276181  81.6163394  55.2288085
  47.3612422  87.9475559  60.1536800  48.2303582  88.1216212  59.7923435
  46.8819174  88.7669976  60.0312529  43.3562640  75.1434757  40.4068556
  43.3441310  76.0876597  40.5636827  44.2486062  74.9604902  40.1128017
  41.5298602  95.0672660  51.8326234  42.4325849  95.0996271  52.1492729
  41.3035972  94.1373111  51.8472570  43.2852204  93.8203647  48.4936312
  42.3347835  93.8205509  48.3800685  43.5884690  93.0736382  47.9772347
  47.1714760  71.7377533  44.6614493  46.4047156  71.1836020  44.8071175
  47.5825465  71.8099402  45.5228644  59.0204898  99.6564185  49.5582075
  59.6583308  99.5370933  48.8545415  58.9025741 100.6045029  49.6170027
  55.8294604  99.6091614  49.4943599  55.4913116  99.4932678  48.6064134
  56.6984372  99.2082779  49.4744606  51.6881420 101.4627090  45.4840490
  51.1246285 101.3717027  44.7156778  51.5733815 100.6426994  45.9642983
  56.3114387 100.7626465  55.4529805  56.3003028 100.3679264  54.5810309
  56.4735027 100.0292538  56.0463576  49.2345852 102.9578282  48.3224711
  50.0267144 102.6169106  47.9071010  49.4742502 103.0673257  49.2426864
  57.2680979 105.1298058  40.7954955  56.6168958 105.7152138  40.4088969
  58.0625341 105.6604253  40.8549993  51.1936606 102.2187195  41.1942090
  51.9667482 101.6716182  41.0554965  51.5462005 103.0831444  41.4056551
  53.0321648 103.5463577  54.4008989  52.7411514 104.4509208  54.2855655
  53.6678633 103.5880105  55.1153059  53.9577855 100.9240426  50.9910349
  54.5541427 100.6996448  50.2767312  54.0152827 100.1825171  51.5935796
  53.5302883  98.3779861  38.8260540  53.7828404  97.8561382  38.0644003
  52.5927443  98.2146006  38.9287223  58.5746166  97.3815639  46.6335283
  59.3609256  96.9635062  46.2825700  58.8384871  98.2861731  46.8016931
  58.7456244 102.8188490  41.3323940  58.1102077 102.8923116  42.0444844
  58.4153650 103.4082088  40.6543019  63.9754593  97.3190872  47.5368261
  64.7079765  96.7490089  47.7706091  63.2193949  96.9312473  47.9774767
  53.2499172 100.2807967  41.0284915  53.1335430  99.6052870  41.6965999
  53.3601432  99.7940341  40.2117068  55.5930713  99.7418114  44.7331604
  55.2288920  99.2148735  45.4444525  56.4497829  99.3516583  44.5598089
  61.4980014  91.0312447  51.9962870  61.1663339  91.9007858  51.7724085
  60.9025627  90.7148731  52.6756900  55.2336200  94.7708014  39.7292952
  55.4010602  95.6388250  40.0963423  55.0433369  94.9335295  38.8054242
  57.9911533 103.2324993  51.3958783  57.6912256 104.1350031  51.2874590
  57.6462593 102.9657176  52.2479936  51.4424015  99.6838789  47.4295487
  50.5174511  99.5515003  47.6373179  51.6908428 100.4633009  47.9265429
  61.3908677  95.7507533  49.0756220  60.4825554  95.6822941  48.7814981
  61.3396273  96.2279478  49.9038045  55.2125421  97.2265671  40.7139619
  55.0925046  97.6722722  41.5525099  54.5178009  97.5750989  40.1553157
  48.8032826  99.3272063  48.2639276  48.9325207  99.5806542  49.1778688
  48.1230277  99.9199771  47.9443931  52.9732313 109.9969313  44.3629750
  52.8956343 110.9477138  44.4418231  52.3693957 109.6515185  45.0204677
  55.4649543  97.1697178  57.0191117  54.6882877  97.7291098  57.0093982
  56.1040106  97.6553961  57.5405987  63.2570323  93.9523971  50.8534094
  62.6144704  94.2456504  50.2073888  62.7525252  93.8376891  51.6587291
  60.9110487  97.6987144  41.5419953  61.8228343  97.9314531  41.3667651
  60.4020134  98.2824189  40.9795032  53.7195915  99.9782632  56.5809084
  54.4610600 100.5167676  56.3043908  53.0132901 100.6048920  56.7380636
  59.1951255 102.1211772  55.1781246  59.6034611 101.6794183  54.4335878
  58.4728516 101.5464400  55.4315439  55.5482325  97.0584379  52.5514803
  56.3943520  97.4823792  52.6949452  55.4880963  96.4018003  53.2453366
  59.5180069 102.6812963  48.9333535  58.8888932 102.8458677  48.2309602
  59.1305732 103.0954572  49.7044499  63.3969301 103.6167401  46.2877898
  62.7120340 103.9966302  45.7374932  63.4813151 104.2262727  47.0209846
  58.6981770  94.7188747  54.2095976  58.4542702  95.4730808  53.6730252
  58.9741701  95.0974095  55.0443223  60.6520233 101.2627360  52.8873242
  60.8637128 101.9059120  52.2107623  60.6049981 100.4289676  52.4195172
  58.2546462  93.8745180  49.7909814  57.3930941  94.1726434  50.0826552
  58.2808897  94.0915579  48.8590847  55.0708031 102.4187371  46.1983620
  55.5346377 102.6975074  45.4088242  54.8064829 101.5170815  46.0156710
  51.9632112 101.9658852  49.1363383  52.5333469 102.3946121  48.4980867
  52.5540224 101.6841437  49.8347569  54.0076917  98.5410523  43.0073185
  54.7100961  98.9931567  43.4747111  53.6757546  97.8994342  43.6353078
  52.4557279  97.1322280  57.3824394  51.8255940  97.8138561  57.6159791
  52.3493367  97.0205361  56.4377532  47.7502251  96.7994076  48.3090318
  46.9601305  97.0551604  47.8330429  48.2413499  97.6142414  48.4142359
  61.7666061 104.1399315  51.0595599  62.5883505 103.7379502  50.7778281
  61.7628464 104.0367549  52.0111715  49.7016997  97.1638655  45.2673795
  48.9048160  97.2757349  45.7857291  49.4742589  97.5025307  44.4014686
  55.5322664 103.6883358  53.2156310  55.5967097 104.1503766  54.0514482
  54.8233588 103.0580723  53.3438620  46.0339954  97.0524566  50.7405309
  46.2847993  97.9371576  51.0062885  46.5699503  96.8729168  49.9680401
  69.8572054 100.4838064  47.4080571  69.1035762  99.9145462  47.2524575
  69.9919595 100.4500728  48.3551205  55.2470682 105.3551466  43.0835290
  55.1116357 106.2003002  43.5120138  55.7880495 105.5570743  42.3201224
  51.7338022  91.4343046  59.7449645  51.3404967  90.8809244  60.4197290
  52.5504162  91.7453624  60.1356163  48.7000079 102.8726904  43.6563215
  49.2124600 103.6670154  43.8068780  49.3522792 102.1753194  43.5896817
  50.5094964 105.9892660  45.7385968  50.6861592 106.9110625  45.5506952
  51.3051798 105.6751079  46.1680348  54.6505983  92.8500925  57.3369902
  55.3915696  93.4508078  57.2574364  54.8823905  92.1078563  56.7787944
  49.7947321  98.0357292  55.6148132  49.6800836  97.1342549  55.9155230
  48.9391838  98.2820989  55.2632948  56.8739158 105.9775032  57.2135632
  56.4303013 105.1911411  56.8956537  57.5356372 106.1654183  56.5479523
  51.6326280 107.5070834  51.7396311  52.1833705 107.3787897  50.9673305
  50.7937755 107.8065723  51.3891203  58.9720396 106.2577832  55.2417033
  58.9538872 107.0786713  54.7497303  59.8940317 106.1331908  55.4667175
  55.4293451 103.7721962  56.0840542  55.9621787 103.0110250  55.8539850
  54.9007532 103.4795614  56.8264696  58.5963146  88.8782028  51.6134184
  58.2527415  89.7683669  51.5373294  58.9642108  88.6883685  50.7503769
  46.6648996 101.2015558  44.4322786  47.5024218 101.6112567  44.2156493
  46.8427264 100.2615000  44.4022980  58.5613428  98.8690639  40.1206619
  58.0460052  99.6395243  40.3595006  58.2890737  98.1955775  40.7439680
  56.1460539  93.7140340  45.1791857  55.2902136  93.3247190  44.9997496
  56.5587491  93.7932300  44.3191643  57.6759686  91.2486683  49.5783417
  57.1724482  91.2116818  48.7651222  57.9690293  92.1579426  49.6380073
  53.9202572  91.3325413  48.5849599  54.7855569  91.1368221  48.2255488
  53.9880081  91.1035764  49.5118955  63.5347702 101.6222993  42.0559792
  62.7577145 101.2834153  41.6114954  64.2139183 101.6275617  41.3814757
  58.3499731  96.7417731  41.9466400  58.0449867  97.0563880  42.7976543
  59.3030174  96.8199151  41.9893733  56.7946163 102.9007954  43.5959354
  56.2667525 102.1660714  43.2832591  56.2933666 103.6782631  43.3499322
  61.7739009 101.0956975  48.7126400  61.1162684 101.7856236  48.8006529
  62.5779409 101.4853407  49.0560386  51.5264891  93.5627621  45.9565965
  52.1008643  93.3402802  45.2239158  52.1135873  93.6316315  46.7094567
  60.5844468  99.4501347  46.7630342  61.0976350 100.0831339  47.2652052
  61.2345692  98.8502543  46.3973702  51.8534478  95.5932082  39.9761851
  51.0171790  95.9306768  40.2971125  51.7139248  95.4581061  39.0388988
  53.8287559  90.4368869  44.6841035  53.1751971  90.1217887  44.0597650
  53.7868033  89.8144610  45.4100858  54.9398763 100.7188165  36.5994327
  54.0325825 100.4877418  36.7985476  55.4369795  99.9225784  36.7868308
  57.8466842 109.4285672  39.5191013  57.1728541 109.7317368  40.1275971
  58.2332664 110.2314752  39.1696470  57.0625299  96.9250803  49.0088682
  56.1447860  97.1465750  48.8510370  57.4785443  96.9997113  48.1500390
  57.8460347  98.3242219  44.1391363  58.5932166  98.8363616  43.8298485
  58.1151936  98.0026271  44.9995756  56.1186997 100.8200759  41.1218317
  55.2098216 100.5359792  41.2190787  56.1482081 101.2399838  40.2621624
  61.3506264 104.4307349  44.8909485  60.8968591 103.5898259  44.9474675
  60.7200231 105.0668747  45.2284265  60.2939184  95.3599335  46.1210152
  59.5561941  94.8476721  46.4520395  60.5465957  94.9199717  45.3093429
  59.7939204 106.2683846  45.8259303  60.0862178 106.8288903  45.1071668
  60.3037824 106.5612407  46.5812462  60.3950811  88.1375587  46.7151921
  60.7009688  87.2772950  46.4277836  61.1203416  88.7293207  46.5150915
  46.6875167  98.5406274  45.1033519  46.4899567  97.9475634  44.3784586
  46.1321831  98.2358484  45.8209458  54.6671891  98.4329380  47.2228112
  54.7220501  97.4803216  47.1470589  53.8563093  98.5888819  47.7069411
  55.8163085 102.3609503  38.4606396  55.3782515 101.6445362  38.0012033
  56.5573526 102.5885618  37.8991487  52.6064251  97.0506440  44.9818491
  51.7932116  97.3500610  45.3883683  53.1023245  96.6562129  45.6992973
  54.7572829 107.0464197  46.9152756  54.7149008 107.2725043  45.9861288
  55.6735528 106.8127571  47.0638557  58.2038463  97.5148264  53.8133385
  58.5587850  97.7419737  54.6727851  58.8510594  97.8466641  53.1910640
  63.9336200 100.6366700  44.5182714  63.7954098 100.8268296  43.5903903
  63.5772418 101.3986083  44.9750765  52.0978326  94.6224795  50.5979726
  52.7377705  94.4813554  49.9002689  51.2655856  94.3359309  50.2218328
  63.9605579 102.7043227  49.5293986  64.3942086 102.6118516  50.3777040
  64.6737160 102.6800728  48.8914002  52.8738630 103.9227226  46.7114719
  53.6679228 103.4277546  46.5097294  52.1630322 103.3945089  46.3482424
  57.6933474 106.3045321  51.0627086  57.7470496 106.8736258  51.8304802
  56.8248255 106.4747206  50.6981123  49.1821393  98.0670307  42.7874471
  48.2518981  98.0054763  43.0044433  49.2778865  97.5446260  41.9911113
  49.1006942  94.5925120  45.3752713  49.3613759  95.5070453  45.2661873
  49.9224114  94.1249563  45.5249326  50.5731867  96.0062877  52.5451537
  51.2454921  95.7980240  51.8964186  49.7461654  95.8084963  52.1056770
  64.8221129 102.7466928  52.0626871  65.0157019 103.6512738  52.3086146
  64.7221747 102.2874347  52.8965456  56.4757439  92.6324818  54.5617198
  55.8285354  93.3314768  54.4681675  57.2458455  93.0660962  54.9293447
  59.8836237 102.8973671  57.6367752  59.7321744 102.6684222  56.7197835
  59.8740917 103.8544272  57.6499097  56.6521574 100.4705583  52.6214018
  57.5813634 100.6216743  52.4482985  56.2312604 100.5589604  51.7662665
  55.4509906 104.4956248  50.3912556  55.3120991 104.1275032  51.2638494
  54.6624502 105.0103887  50.2196513  56.0458058 109.5965344  41.7338092
  56.2209813 109.1253387  42.5483715  55.3590846 110.2231110  41.9619353
  57.0015121 103.8737850  47.7801393  56.6664953 103.8338620  48.6759043
  56.5019066 103.2082566  47.3071804  50.9759365  99.2805480  53.3053975
  50.8379163  98.5485719  53.9065514  51.8864288  99.1914380  53.0238162
  59.9374312 101.2193885  38.0538453  59.3203483 100.4940713  37.9571506
  59.4690801 101.9803245  37.7105527  53.6041665  98.9925440  52.7937654
  54.3141284  98.3518632  52.7524273  53.5610973  99.2438335  53.7163835
  61.5928444 105.9292793  55.7144233  61.5340990 105.2452013  55.0474816
  61.9947962 106.6711783  55.2624859  52.3170599  95.9790658  54.6133294
  51.7807956  95.5281396  55.2654890  51.7287308  96.1136566  53.8703758
  50.6119143 112.7454707  48.5077952  50.8515741 113.3773231  49.1856971
  49.7688339 112.3942747  48.7943312  51.7272858  95.4379309  37.1759757
  50.8502325  95.3168110  36.8122004  52.2030611  94.6465387  36.9238646
  61.5945851 103.8932377  53.9458213  60.7072630 103.5558299  54.0684612
  62.1644402 103.1615408  54.1826979  43.2474998 100.2256469  47.2701265
  43.9346038  99.9118199  46.6822280  43.0923127 101.1297833  46.9968516
  48.0509721  95.1146665  51.6986288  47.9667909  94.5072335  50.9636698
  47.2292427  95.6055684  51.6995785  55.1247005 108.5533829  50.9119456
  55.0517176 109.3588801  51.4238761  54.6824398 108.7525795  50.0867478
  54.9136784 107.7905599  44.4222278  54.1304306 108.3327280  44.5160502
  55.6129529 108.3079579  44.8216519  58.2233434  93.6000229  47.0656483
  58.7202134  92.8470191  46.7457554  57.4520416  93.6364545  46.4999693
  66.0763192  99.3040594  48.7074775  66.0653068 100.1865310  48.3368708
  65.2080571  98.9512145  48.5129312  57.5845688 108.4520663  53.0677615
  58.2973660 109.0868128  52.9953516  57.0935717 108.5484529  52.2517617
  59.3063215 102.3571916  44.6394907  58.3719494 102.4773379  44.4699611
  59.4839884 101.4544383  44.3754917  54.8068403  95.7417612  46.7928168
  54.4366191  95.1888652  47.4809073  55.3027496  95.1375745  46.2403168
  62.6935766  98.1989235  45.1744941  63.1596219  99.0317227  45.1005243
  63.1443267  97.7334217  45.8790199  52.6357602 106.2015107  53.8883186
  53.3367061 106.8351590  54.0412580  52.1652717 106.5429838  53.1278825
  60.7611998 104.5433057  42.1731093  61.0371841 104.4289651  43.0824967
  59.8916496 104.1450541  42.1343266  60.6652429  90.5669822  49.2135842
  59.7515509  90.7974049  49.3818049  61.0945531  90.6508266  50.0649875
  60.4358888  98.7559714  51.7135736  59.7830338  99.0035622  51.0588189
  60.8139268  97.9423852  51.3798213  57.3966062 108.7919407  45.8163906
  57.5788456 107.9741063  46.2791659  58.2199048 109.0087100  45.3788796
  57.7308227 107.7187593  43.0778955  58.2595994 107.2080047  42.4649117
  57.9936447 107.4030123  43.9424488  56.4846461  99.4979525  58.2001773
  55.8087098  99.3973655  58.8704148  57.3074095  99.3418739  58.6637770
  48.2325320 105.7351462  50.8214288  48.8178757 104.9895150  50.9542193
  48.0350158 106.0455419  51.7050952  51.0863975 108.7702709  45.8376731
  50.4174350 109.2548837  45.3540771  50.9476845 109.0171930  46.7520109
  42.8242975  98.3057062  49.5418732  42.8627074  97.7720653  50.3355850
  42.3183267  97.7792268  48.9229709  55.2269244 110.8046453  52.4359389
  55.7787552 110.9678074  53.2008474  55.5675437 111.3950891  51.7639414
  50.2033737  93.1521603  53.0381274  50.2675063  94.0136433  52.6258672
  50.1400857  92.5395604  52.3053632  49.6786009  95.2244735  56.6854308
  50.3058048  94.8421812  57.2991833  48.8213928  95.0058937  57.0510001
  60.0780118 105.6307710  58.2908044  60.6220022 106.2437669  57.7962998
  59.4966963 106.1887289  58.8075057  46.4551552  97.0321164  42.6172663
  46.7504993  96.1231843  42.5639717  45.5539588  97.0108904  42.2953665
  58.3637631 108.7528428  49.4223071  58.2388770 107.9518168  48.9134017
  59.0216722 109.2474622  48.9337041  49.9845799  95.1077161  48.6000212
  49.2632385  95.7213129  48.4607685  50.7739055  95.6434926  48.5216858
  60.4272539 106.5537448  51.0502621  59.4802875 106.4342800  50.9780948
  60.7755312 105.6659946  51.1328883  52.7872113  92.4431587  54.8740863
  53.3106514  92.6893884  55.6367173  52.5684446  93.2751622  54.4544001
  48.1839394  94.7135262  42.7411988  47.8552100  93.8332641  42.5587094
  48.5378764  94.6582931  43.6288377  57.4318973 106.3490165  47.2506974
  57.2843935 105.4206872  47.4314544  58.2572466 106.3710255  46.7664049
  51.2981217  95.0008232  43.1087466  51.6377289  95.5294153  42.3866074
  51.7453337  95.3388638  43.8846032  61.0353094 107.1718723  48.3371846
  61.9599642 106.9661585  48.1996298  60.8668398 106.9235125  49.2461188
  53.9924658  93.3845282  52.5590534  53.6521478  92.5853095  52.9611214
  53.2863664  93.6846993  51.9867367  54.6441129  90.4694595  51.0117857
  55.4667199  89.9955073  50.8896747  54.8879193  91.2485079  51.5116543
  53.2849364  93.4982853  41.3080759  54.0057726  93.8764106  40.8044475
  52.6614668  94.2171730  41.4115737  57.4280487  94.2028002  42.2439091
  57.6444101  95.0852640  41.9427919  56.9474554  93.8114216  41.5144733
  52.1679708  97.1613715  48.8209836  52.0224289  97.4754019  49.7134117
  51.6904912  97.7798616  48.2680734  54.0276091  94.1516263  48.8690725
  54.0137660  93.2557357  48.5323023  54.7448519  94.1586927  49.5029011
  55.8802222  94.5853604  50.9143853  55.6220000  95.5070674  50.9128183
  55.3487262  94.1884038  51.6044317  60.8248411 107.6904391  43.6933938
  60.9985288 107.1250813  42.9407790  61.3177302 108.4905286  43.5113428
  46.6425370  99.7019060  51.7597497  46.0978838 100.4778868  51.8917771
  47.5204720 100.0489864  51.6016618  53.4312987  93.0330644  44.1378295
  53.5528898  92.1047290  44.3369183  53.1415029  93.0469330  43.2256611
  56.3004177  90.7185554  47.2745015  56.3225874  90.7824887  46.3196995
  56.7172236  89.8790063  47.4685521  66.6787802 100.4540814  45.3124238
  67.1218948  99.7048139  44.9143361  65.8014312 100.4450950  44.9297970
  61.8123583 107.0071155  40.7930836  62.5074488 107.6277848  41.0118151
  62.1546733 106.1566506  41.0683214  47.4291392  98.8288956  54.6527654
  46.6873128  98.9771592  55.2392284  47.1084137  99.0897222  53.7894403
  63.7115006 104.4570861  42.3218167  64.2366330 104.7958133  41.5967487
  63.6237359 103.5217876  42.1381302  55.3735055 108.3704934  54.4508044
  55.6822181 108.1254081  55.3230743  56.1710537 108.5751573  53.9626914
  55.3955667 110.5242844  46.6813420  54.9560657 110.0319223  47.3746277
  56.1463784 109.9815812  46.4405495  47.8748006 106.7154385  46.6838048
  48.7006026 106.4158157  46.3036692  47.5242058 105.9462007  47.1327837
  52.8429539 106.0680853  48.7535722  52.2209548 105.4051558  48.4537950
  53.5134406 106.0941985  48.0709370  46.0756611 104.6340711  47.6426982
  45.2388519 104.2062886  47.4610983  46.0480256 104.8273155  48.5797773
  52.9154067  94.5462641  58.3468228  52.9642222  95.4224764  57.9645997
  53.4576581  94.0040034  57.7739871  63.4008912 105.0903764  57.6269365
  62.6104456 105.0727903  57.0873864  63.1642267 105.6292058  58.3818402
  63.5206787 101.9396231  54.9402093  63.5704792 101.7746238  55.8817616
  63.4120711 101.0723490  54.5499974  52.4043046 104.6184776  42.2294182
  52.5531166 105.3020241  41.5760855  53.2109489 104.5989867  42.7443638
  60.8110550  97.9227159  56.2561400  61.7120412  97.7833624  55.9645398
  60.8858524  98.0881614  57.1959578  55.1453355  95.2994014  55.1014587
  54.2756664  95.5927580  54.8297175  55.3812835  95.8834459  55.8221850
  65.0224984 104.3593172  55.1844115  64.7309792 104.7223153  56.0207576
  64.4097115 103.6460181  55.0057447  66.2220666 101.9246052  47.7046685
  67.0567558 102.3635856  47.8684246  66.3579795 101.4484705  46.8854931
  63.2712172  99.4825787  53.6524173  63.7466294  99.6753433  52.8443024
  62.3477738  99.5384973  53.4067557  50.1595679 100.6449954  43.2355251
  49.9141721  99.7412284  43.4335461  50.3291594 100.6467105  42.2934729
  57.8492389  91.5173630  52.6180007  58.3674333  92.2534657  52.2926495
  57.4947522  91.8237624  53.4526766  49.4291327  96.3778312  40.7341413
  48.7360571  96.4522667  40.0781449  49.1843078  95.6138655  41.2562930
  58.1004983  87.9373913  48.1380903  58.3806737  87.2697102  48.7641330
  58.8855590  88.1303009  47.6255567  55.9038452 107.1132907  39.7005930
  55.3312419 107.7323094  39.2476402  56.4771245 107.6632269  40.2345852
  61.9713841  96.3591547  51.8852479  62.9231264  96.4589645  51.9064703
  61.8017292  95.5669816  52.3950563  59.9928221  93.4447130  52.0711880
  59.3978153  93.7252143  51.3758368  59.7077918  93.9341031  52.8428621
  59.1235711 107.3970057  40.8314512  60.0566384 107.3315619  41.0347388
  59.0358924 108.2326324  40.3729045  61.7523728 106.7135927  37.7918460
  61.6737360 106.3795791  38.6854218  62.5733395 107.2057695  37.7909932
  64.4501919  99.5797667  50.9994778  64.4178239  98.6413667  51.1854462
  65.0602543  99.6581703  50.2660603  56.2885250  98.4493720  37.0421982
  57.2344355  98.3199928  37.1110400  55.9099495  97.7108382  37.5191410
  64.5996408  96.3708710  51.0453061  64.0835456  95.5867167  50.8582990
  65.4836356  96.0427427  51.2099581  62.2607135  90.1149726  47.0048874
  62.0631956  89.8064814  47.8892206  62.8706840  90.8411365  47.1346804
  70.2678469 100.6413674  50.1400815  70.9981858 100.3798962  50.7008518
  69.6585415  99.9042395  50.1802883  68.3493766  98.7821536  50.7375266
  67.6226930  98.6477501  50.1291758  67.9341053  99.0898365  51.5431984
  56.1723943 102.5011466  58.5022639  57.0926952 102.6790065  58.6962686
  56.1373526 101.5567511  58.3502339  54.4728167  96.3743696  36.9776868
  53.5659623  96.0776809  37.0539581  54.7504148  96.0773514  36.1111154
  45.3906108  97.6950059  47.4275914  45.0708892  96.8415368  47.1350288
  44.8439536  97.9098638  48.1833881  49.1686015 100.4112500  51.1445420
  49.3872025 101.3429608  51.1633454  49.5811789 100.0520475  51.9300224
  56.0890233  90.9180586  43.1321109  55.2790961  90.5727671  43.5076355
  56.7774650  90.6088129  43.7208720  58.0180781  89.9958633  44.7545405
  58.5711820  90.4154086  45.4135429  58.2550868  89.0694381  44.7968361
  54.0413880  95.9845706  60.5348169  53.9410607  96.9340063  60.4660260
  53.8235423  95.6563945  59.6624239  53.2426952  93.2330631  37.1188847
  54.1046116  93.5585530  37.3784664  53.4277296  92.4462127  36.6061913
  45.2594368 101.3152971  49.3969036  44.5657839 100.9006924  48.8838990
  46.0067359 101.3573507  48.8002454  61.3959588  92.1059158  44.2624070
  60.8158257  92.7643962  43.8802122  61.1295521  91.2836502  43.8511487
  59.8463155  91.5064215  46.4645390  60.3462933  91.6180750  45.6559709
  60.4898763  91.2025268  47.1046198  53.9045151  99.4142845  59.3513231
  53.4212232 100.2143205  59.5577120  53.9906090  99.4250790  58.3980675
  47.1731110 101.2471225  47.2735050  47.1501798 101.3458912  46.3216933
  47.4831747 102.0936376  47.5952217  49.8318488 103.3047380  51.3881665
  50.7861742 103.2731322  51.3211596  49.6331012 102.8438003  52.2031891
  50.4217870 101.8748496  53.9552462  51.2410759 102.3692574  53.9787300
  50.6954678 100.9580464  53.9270030  60.1784466  94.2659248  43.3180418
  59.2910321  94.5508899  43.1000613  60.5938455  94.1053011  42.4707695
  63.5299002  94.2905769  47.0334757  64.3059393  94.7802222  47.3059374
  62.8047137  94.7163823  47.4906627  65.9671561  95.0033388  48.0908698
  66.5616052  94.7629124  47.3802006  66.0398145  94.2840519  48.7182234
  48.1868717 108.8466999  48.4051863  48.0523185 108.0867400  47.8389861
  47.7700779 109.5707899  47.9380652  59.3227680 104.0303923  37.4128438
  60.0263530 104.2353925  38.0286094  58.5990329 104.5980685  37.6777521
  60.1525490  99.7813784  43.5330708  60.0960691 100.2382335  42.6938341
  60.7053833  99.0204469  43.3553551  63.9630296  95.5703516  44.3580828
  63.7067230  95.1700152  45.1889035  63.3383164  96.2847310  44.2330967
  68.2742634  98.3099589  46.8652119  67.7142192  98.3792778  47.6383681
  67.6686137  98.1340574  46.1451615  51.3437843 109.7436316  48.6170305
  51.2270227 110.6881749  48.5148996  50.5230289 109.4409878  49.0056105
  61.2314377 104.4686452  39.4626898  62.0659981 104.0367650  39.2804373
  61.0698720 104.2968466  40.3903792  60.8860269 100.9718565  40.8283237
  60.8309073 100.8062837  39.8871681  60.2606325 101.6794598  40.9845427
  45.6752784  96.2086630  54.6544660  46.3211648  95.6985584  55.1431885
  45.4669935  96.9455311  55.2288085  58.2006177 103.2767477  60.1536800
  59.0697336 103.4508129  59.7923435  57.7212928 104.0961894  60.0312529
  54.1956395  90.4726674  40.4068556  54.1835065  91.4168514  40.5636827
  55.0879817  90.2896820  40.1128017  52.3692357 110.3964578  51.8326234
  53.2719603 110.4288188  52.1492729  52.1429727 109.4665029  51.8472570
  54.1245959 109.1495565  48.4936312  53.1741590 109.1497426  48.3800685
  54.4278445 108.4028299  47.9772347  58.0108514  87.0669451  44.6614493
  57.2440910  86.5127938  44.8071175  58.4219219  87.1391320  45.5228644
  50.0150275  93.3554247  58.7519674  50.8781737  92.9991052  58.9622998
  49.4415686  93.0168142  59.4395078  69.8598652 114.9856103  49.5582075
  70.4977062 114.8662850  48.8545415  69.7419495 115.9336947  49.6170027
  66.6688359 114.9383531  49.4943599  66.3306870 114.8224596  48.6064134
  67.5378127 114.5374696  49.4744606  62.5275174 116.7919008  45.4840490
  61.9640039 116.7008945  44.7156778  62.4127569 115.9718912  45.9642983
  67.1508142 116.0918383  55.4529805  67.1396782 115.6971181  54.5810309
  67.3128781 115.3584456  56.0463576  60.0739606 118.2870199  48.3224711
  60.8660898 117.9461024  47.9071010  60.3136256 118.3965174  49.2426864
  68.1074733 120.4589975  40.7954955  67.4562713 121.0444056  40.4088969
  68.9019096 120.9896170  40.8549993  62.0330360 117.5479112  41.1942090
  62.8061236 117.0008100  41.0554965  62.3855759 118.4123362  41.4056551
  63.8715403 118.8755495  54.4008989  63.5805269 119.7801126  54.2855655
  64.5072387 118.9172022  55.1153059  64.7971610 116.2532343  50.9910349
  65.3935182 116.0288366  50.2767312  64.8546581 115.5117089  51.5935796
  64.3696638 113.7071779  38.8260540  64.6222159 113.1853300  38.0644003
  63.4321197 113.5437924  38.9287223  69.4139921 112.7107557  46.6335283
  70.2003010 112.2926980  46.2825700  69.6778625 113.6153649  46.8016931
  69.5849998 118.1480407  41.3323940  68.9495831 118.2215034  42.0444844
  69.2547405 118.7374006  40.6543019  74.8148348 112.6482790  47.5368261
  75.5473520 112.0782007  47.7706091  74.0587704 112.2604391  47.9774767
  64.0892927 115.6099885  41.0284915  63.9729185 114.9344788  41.6965999
  64.1995187 115.1232258  40.2117068  66.4324468 115.0710032  44.7331604
  66.0682675 114.5440653  45.4444525  67.2891584 114.6808501  44.5598089
  72.3373768 106.3604364  51.9962870  72.0057093 107.2299775  51.7724085
  71.7419382 106.0440648  52.6756900  66.0729955 110.0999931  39.7292952
  66.2404357 110.9680168  40.0963423  65.8827124 110.2627213  38.8054242
  68.8305288 118.5616910  51.3958783  68.5306011 119.4641949  51.2874590
  68.4856347 118.2949093  52.2479936  62.2817769 115.0130707  47.4295487
  61.3568266 114.8806921  47.6373179  62.5302182 115.7924926  47.9265429
  72.2302432 111.0799450  49.0756220  71.3219309 111.0114859  48.7814981
  72.1790027 111.5571395  49.9038045  66.0519175 112.5557589  40.7139619
  65.9318801 113.0014640  41.5525099  65.3571764 112.9042906  40.1553157
  59.6426580 114.6563981  48.2639276  59.7718961 114.9098460  49.1778688
  58.9624032 115.2491689  47.9443931  63.8126068 125.3261231  44.3629750
  63.7350097 126.2769056  44.4418231  63.2087711 124.9807103  45.0204677
  66.3043297 112.4989096  57.0191117  65.5276631 113.0583016  57.0093982
  66.9433860 112.9845879  57.5405987  74.0964078 109.2815889  50.8534094
  73.4538458 109.5748422  50.2073888  73.5919007 109.1668809  51.6587291
  71.7504242 113.0279062  41.5419953  72.6622098 113.2606449  41.3667651
  71.2413889 113.6116106  40.9795032  64.5589670 115.3074549  56.5809084
  65.3004354 115.8459593  56.3043908  63.8526655 115.9340838  56.7380636
  70.0345009 117.4503690  55.1781246  70.4428365 117.0086100  54.4335878
  69.3122271 116.8756317  55.4315439  66.3876079 112.3876297  52.5514803
  67.2337275 112.8115710  52.6949452  66.3274717 111.7309921  53.2453366
  70.3573824 118.0104880  48.9333535  69.7282686 118.1750595  48.2309602
  69.9699486 118.4246490  49.7044499  74.2363056 118.9459318  46.2877898
  73.5514094 119.3258220  45.7374932  74.3206905 119.5554645  47.0209846
  69.5375525 110.0480665  54.2095976  69.2936457 110.8022725  53.6730252
  69.8135455 110.4266013  55.0443223  71.4913987 116.5919277  52.8873242
  71.7030883 117.2351037  52.2107623  71.4443736 115.7581594  52.4195172
  69.0940216 109.2037098  49.7909814  68.2324695 109.5018352  50.0826552
  69.1202651 109.4207497  48.8590847  65.9101786 117.7479289  46.1983620
  66.3740131 118.0266992  45.4088242  65.6458584 116.8462733  46.0156710
  62.8025867 117.2950770  49.1363383  63.3727224 117.7238038  48.4980867
  63.3933979 117.0133355  49.8347569  64.8470672 113.8702441  43.0073185
  65.5494715 114.3223485  43.4747111  64.5151300 113.2286260  43.6353078
  63.2951033 112.4614198  57.3824394  62.6649694 113.1430478  57.6159791
  63.1887121 112.3497279  56.4377532  58.5896006 112.1285994  48.3090318
  57.7995060 112.3843522  47.8330429  59.0807253 112.9434331  48.4142359
  72.6059815 119.4691233  51.0595599  73.4277259 119.0671420  50.7778281
  72.6022218 119.3659467  52.0111715  60.5410751 112.4930573  45.2673795
  59.7441915 112.6049267  45.7857291  60.3136343 112.8317225  44.4014686
  66.3716419 119.0175276  53.2156310  66.4360851 119.4795683  54.0514482
  65.6627343 118.3872641  53.3438620  56.8733709 112.3816484  50.7405309
  57.1241747 113.2663494  51.0062885  57.4093257 112.2021086  49.9680401
  80.6965808 115.8129981  47.4080571  79.9429517 115.2437379  47.2524575
  80.8313350 115.7792646  48.3551205  66.0864436 120.6843384  43.0835290
  65.9510111 121.5294919  43.5120138  66.6274249 120.8862661  42.3201224
  62.5731776 106.7634963  59.7449645  62.1798722 106.2101162  60.4197290
  63.3897916 107.0745542  60.1356163  59.5393834 118.2018822  43.6563215
  60.0518354 118.9962072  43.8068780  60.1916547 117.5045112  43.5896817
  61.3488719 121.3184578  45.7385968  61.5255347 122.2402543  45.5506952
  62.1445552 121.0042997  46.1680348  65.4899737 108.1792842  57.3369902
  66.2309451 108.7799996  57.2574364  65.7217660 107.4370480  56.7787944
  60.6341075 113.3649210  55.6148132  60.5194590 112.4634467  55.9155230
  59.7785593 113.6112906  55.2632948  67.7132913 121.3066950  57.2135632
  67.2696767 120.5203329  56.8956537  68.3750126 121.4946101  56.5479523
  62.4720034 122.8362752  51.7396311  63.0227459 122.7079815  50.9673305
  61.6331510 123.1357641  51.3891203  69.8114151 121.5869750  55.2417033
  69.7932626 122.4078631  54.7497303  70.7334071 121.4623825  55.4667175
  66.2687205 119.1013879  56.0840542  66.8015542 118.3402168  55.8539850
  65.7401286 118.8087531  56.8264696  69.4356900 104.2073945  51.6134184
  69.0921169 105.0975587  51.5373294  69.8035863 104.0175603  50.7503769
  57.5042751 116.5307476  44.4322786  58.3417973 116.9404484  44.2156493
  57.6821018 115.5906918  44.4022980  69.4007183 114.1982557  40.1206619
  68.8853806 114.9687161  40.3595006  69.1284491 113.5247693  40.7439680
  66.9854294 109.0432257  45.1791857  66.1295890 108.6539108  44.9997496
  67.3981246 109.1224218  44.3191643  68.5153440 106.5778601  49.5783417
  68.0118236 106.5408736  48.7651222  68.8084047 107.4871343  49.6380073
  64.7596326 106.6617330  48.5849599  65.6249323 106.4660139  48.2255488
  64.8273835 106.4327682  49.5118955  74.3741457 116.9514911  42.0559792
  73.5970900 116.6126071  41.6114954  75.0532938 116.9567534  41.3814757
  69.1893486 112.0709649  41.9466400  68.8843622 112.3855798  42.7976543
  70.1423928 112.1491069  41.9893733  67.6339918 118.2299872  43.5959354
  67.1061279 117.4952632  43.2832591  67.1327421 119.0074548  43.3499322
  72.6132764 116.4248892  48.7126400  71.9556438 117.1148154  48.8006529
  73.4173163 116.8145324  49.0560386  62.3658645 108.8919538  45.9565965
  62.9402397 108.6694720  45.2239158  62.9529628 108.9608233  46.7094567
  71.4238223 114.7793265  46.7630342  71.9370104 115.4123257  47.2652052
  72.0739447 114.1794461  46.3973702  62.6928233 110.9223999  39.9761851
  61.8565545 111.2598686  40.2971125  62.5533002 110.7872979  39.0388988
  64.6681313 105.7660787  44.6841035  64.0145725 105.4509804  44.0597650
  64.6261787 105.1436528  45.4100858  65.7792518 116.0480082  36.5994327
  64.8719580 115.8169336  36.7985476  66.2763550 115.2517701  36.7868308
  68.6860597 124.7577589  39.5191013  68.0122296 125.0609286  40.1275971
  69.0726419 125.5606670  39.1696470  67.9019053 112.2542721  49.0088682
  66.9841615 112.4757668  48.8510370  68.3179197 112.3289031  48.1500390
  68.6854101 113.6534136  44.1391363  69.4325920 114.1655534  43.8298485
  68.9545691 113.3318189  44.9995756  66.9580751 116.1492677  41.1218317
  66.0491971 115.8651710  41.2190787  66.9875835 116.5691756  40.2621624
  72.1900019 119.7599267  44.8909485  71.7362346 118.9190176  44.9474675
  71.5593986 120.3960665  45.2284265  71.1332938 110.6891253  46.1210152
  70.3955695 110.1768639  46.4520395  71.3859712 110.2491634  45.3093429
  70.6332958 121.5975763  45.8259303  70.9255932 122.1580820  45.1071668
  71.1431579 121.8904324  46.5812462  71.2344566 103.4667505  46.7151921
  71.5403443 102.6064868  46.4277836  71.9597171 104.0585125  46.5150915
  57.5268922 113.8698191  45.1033519  57.3293322 113.2767552  44.3784586
  56.9715586 113.5650401  45.8209458  65.5065645 113.7621298  47.2228112
  65.5614255 112.8095134  47.1470589  64.6956847 113.9180737  47.7069411
  66.6556839 117.6901421  38.4606396  66.2176269 116.9737280  38.0012033
  67.3967280 117.9177536  37.8991487  63.4458005 112.3798357  44.9818491
  62.6325871 112.6792528  45.3883683  63.9417000 111.9854046  45.6992973
  65.5966583 122.3756114  46.9152756  65.5542762 122.6016961  45.9861288
  66.5129282 122.1419489  47.0638557  69.0432217 112.8440182  53.8133385
  69.3981605 113.0711655  54.6727851  69.6904348 113.1758559  53.1910640
  74.7729954 115.9658618  44.5182714  74.6347853 116.1560214  43.5903903
  74.4166173 116.7278001  44.9750765  62.9372080 109.9516713  50.5979726
  63.5771459 109.8105472  49.9002689  62.1049611 109.6651226  50.2218328
  74.7999334 118.0335145  49.5293986  75.2335840 117.9410434  50.3777040
  75.5130914 118.0092645  48.8914002  63.7132384 119.2519143  46.7114719
  64.5072983 118.7569463  46.5097294  63.0024076 118.7237006  46.3482424
  68.5327229 121.6337239  51.0627086  68.5864251 122.2028175  51.8304802
  67.6642010 121.8039124  50.6981123  60.0215148 113.3962225  42.7874471
  59.0912736 113.3346681  43.0044433  60.1172620 112.8738178  41.9911113
  59.9400697 109.9217038  45.3752713  60.2007514 110.8362371  45.2661873
  60.7617869 109.4541480  45.5249326  61.4125622 111.3354795  52.5451537
  62.0848675 111.1272157  51.8964186  60.5855408 111.1376881  52.1056770
  75.6614883 118.0758845  52.0626871  75.8550773 118.9804656  52.3086146
  75.5615501 117.6166265  52.8965456  67.3151194 107.9616736  54.5617198
  66.6679109 108.6606686  54.4681675  68.0852209 108.3952880  54.9293447
  70.7229992 118.2265588  57.6367752  70.5715498 117.9976140  56.7197835
  70.7134671 119.1836190  57.6499097  67.4915328 115.7997501  52.6214018
  68.4207388 115.9508661  52.4482985  67.0706358 115.8881522  51.7662665
  66.2903660 119.8248165  50.3912556  66.1514746 119.4566950  51.2638494
  65.5018256 120.3395805  50.2196513  66.8851812 124.9257262  41.7338092
  67.0603568 124.4545305  42.5483715  66.1984600 125.5523028  41.9619353
  67.8408875 119.2029768  47.7801393  67.5058708 119.1630538  48.6759043
  67.3412821 118.5374484  47.3071804  61.8153119 114.6097398  53.3053975
  61.6772917 113.8777637  53.9065514  62.7258043 114.5206298  53.0238162
  70.7768067 116.5485802  38.0538453  70.1597237 115.8232631  37.9571506
  70.3084555 117.3095163  37.7105527  64.4435420 114.3217357  52.7937654
  65.1535038 113.6810550  52.7524273  64.4004728 114.5730252  53.7163835
  72.4322199 121.2584711  55.7144233  72.3734745 120.5743931  55.0474816
  72.8341717 122.0003701  55.2624859  63.1564354 111.3082575  54.6133294
  62.6201711 110.8573314  55.2654890  62.5681062 111.4428484  53.8703758
  62.5666613 110.7671227  37.1759757  61.6896079 110.6460027  36.8122004
  63.0424366 109.9757305  36.9238646  72.4339606 119.2224295  53.9458213
  71.5466385 118.8850216  54.0684612  73.0038157 118.4907326  54.1826979
  54.0868753 115.5548386  47.2701265  54.7739793 115.2410116  46.6822280
  53.9316882 116.4589751  46.9968516  58.8903475 110.4438583  51.6986288
  58.8061664 109.8364253  50.9636698  58.0686181 110.9347601  51.6995785
  65.9640759 123.8825747  50.9119456  65.8910931 124.6880719  51.4238761
  65.5218152 124.0817713  50.0867478  65.7530539 123.1197517  44.4222278
  64.9698061 123.6619197  44.5160502  66.4523284 123.6371497  44.8216519
  69.0627189 108.9292147  47.0656483  69.5595888 108.1762109  46.7457554
  68.2914170 108.9656463  46.4999693  76.9156946 114.6332512  48.7074775
  76.9046823 115.5157227  48.3368708  76.0474326 114.2804063  48.5129312
  68.4239443 123.7812581  53.0677615  69.1367415 124.4160046  52.9953516
  67.9329471 123.8776447  52.2517617  70.1456970 117.6863834  44.6394907
  69.2113248 117.8065296  44.4699611  70.3233638 116.7836300  44.3754917
  65.6462158 111.0709529  46.7928168  65.2759945 110.5180570  47.4809073
  66.1421250 110.4667663  46.2403168  73.5329521 113.5281153  45.1744941
  73.9989973 114.3609145  45.1005243  73.9837021 113.0626135  45.8790199
  63.4751356 121.5307025  53.8883186  64.1760816 122.1643507  54.0412580
  63.0046471 121.8721756  53.1278825  71.6005752 119.8724974  42.1731093
  71.8765596 119.7581569  43.0824967  70.7310251 119.4742459  42.1343266
  71.5046184 105.8961740  49.2135842  70.5909263 106.1265967  49.3818049
  71.9339285 105.9800184  50.0649875  71.2752642 114.0851632  51.7135736
  70.6224092 114.3327539  51.0588189  71.6533022 113.2715770  51.3798213
  68.2359816 124.1211325  45.8163906  68.4182211 123.3032981  46.2791659
  69.0592802 124.3379017  45.3788796  68.5701982 123.0479510  43.0778955
  69.0989748 122.5371965  42.4649117  68.8330201 122.7322040  43.9424488
  67.3240215 114.8271443  58.2001773  66.6480852 114.7265572  58.8704148
  68.1467849 114.6710657  58.6637770  59.0719074 121.0643380  50.8214288
  59.6572511 120.3187067  50.9542193  58.8743913 121.3747336  51.7050952
  61.9257730 124.0994627  45.8376731  61.2568105 124.5840755  45.3540771
  61.7870599 124.3463847  46.7520109  53.6636729 113.6348980  49.5418732
  53.7020829 113.1012570  50.3355850  53.1577022 113.1084185  48.9229709
  66.0662998 126.1338370  52.4359389  66.6181306 126.2969992  53.2008474
  66.4069192 126.7242808  51.7639414  61.0427491 108.4813520  53.0381274
  61.1068818 109.3428351  52.6258672  60.9794612 107.8687522  52.3053632
  60.5179764 110.5536653  56.6854308  61.1451803 110.1713730  57.2991833
  59.6607683 110.3350855  57.0510001  70.9173872 120.9599628  58.2908044
  71.4613776 121.5729586  57.7962998  70.3360717 121.5179206  58.8075057
  57.2945307 112.3613082  42.6172663  57.5898748 111.4523760  42.5639717
  56.3933342 112.3400821  42.2953665  69.2031385 124.0820346  49.4223071
  69.0782525 123.2810086  48.9134017  69.8610476 124.5766539  48.9337041
  60.8239554 110.4369078  48.6000212  60.1026139 111.0505046  48.4607685
  61.6132809 110.9726843  48.5216858  71.2666294 121.8829366  51.0502621
  70.3196629 121.7634717  50.9780948  71.6149067 120.9951864  51.1328883
  63.6265867 107.7723505  54.8740863  64.1500269 108.0185802  55.6367173
  63.4078200 108.6043540  54.4544001  59.0233148 110.0427180  42.7411988
  58.6945854 109.1624559  42.5587094  59.3772519 109.9874848  43.6288377
  68.2712727 121.6782082  47.2506974  68.1237689 120.7498790  47.4314544
  69.0966221 121.7002173  46.7664049  62.1374971 110.3300149  43.1087466
  62.4771044 110.8586071  42.3866074  62.5847092 110.6680555  43.8846032
  71.8746849 122.5010641  48.3371846  72.7993396 122.2953502  48.1996298
  71.7062152 122.2527042  49.2461188  64.8318412 108.7137200  52.5590534
  64.4915233 107.9145013  52.9611214  64.1257418 109.0138911  51.9867367
  65.4834884 105.7986513  51.0117857  66.3060953 105.3246991  50.8896747
  65.7272948 106.5776996  51.5116543  64.1243118 108.8274771  41.3080759
  64.8451481 109.2056024  40.8044475  63.5008423 109.5463648  41.4115737
  68.2674241 109.5319920  42.2439091  68.4837856 110.4144558  41.9427919
  67.7868309 109.1406133  41.5144733  63.0073463 112.4905633  48.8209836
  62.8618043 112.8045936  49.7134117  62.5298666 113.1090533  48.2680734
  64.8669846 109.4808181  48.8690725  64.8531414 108.5849274  48.5323023
  65.5842274 109.4878845  49.5029011  66.7195976 109.9145521  50.9143853
  66.4613754 110.8362592  50.9128183  66.1881017 109.5175956  51.6044317
  71.6642165 123.0196308  43.6933938  71.8379043 122.4542731  42.9407790
  72.1571056 123.8197203  43.5113428  57.4819125 115.0310978  51.7597497
  56.9372593 115.8070786  51.8917771  58.3598475 115.3781782  51.6016618
  64.2706742 108.3622561  44.1378295  64.3922653 107.4339208  44.3369183
  63.9808784 108.3761247  43.2256611  67.1397932 106.0477472  47.2745015
  67.1619629 106.1116805  46.3196995  67.5565991 105.2081981  47.4685521
  77.5181556 115.7832731  45.3124238  77.9612702 115.0340057  44.9143361
  76.6408067 115.7742868  44.9297970  72.6517338 122.3363073  40.7930836
  73.3468242 122.9569766  41.0118151  72.9940488 121.4858424  41.0683214
  58.2685147 114.1580874  54.6527654  57.5266883 114.3063509  55.2392284
  57.9477891 114.4189139  53.7894403  74.5508761 119.7862778  42.3218167
  75.0760085 120.1250051  41.5967487  74.4631113 118.8509794  42.1381302
  66.2128809 123.6996852  54.4508044  66.5215936 123.4545999  55.3230743
  67.0104291 123.9043491  53.9626914  66.2349421 125.8534762  46.6813420
  65.7954412 125.3611140  47.3746277  66.9857538 125.3107729  46.4405495
  58.7141760 122.0446303  46.6838048  59.5399780 121.7450074  46.3036692
  58.3635812 121.2753925  47.1327837  63.6823294 121.3972771  48.7535722
  63.0603303 120.7343476  48.4537950  64.3528161 121.4233903  48.0709370
  56.9150365 119.9632629  47.6426982  56.0782274 119.5354803  47.4610983
  56.8874011 120.1565072  48.5797773  63.7547821 109.8754559  58.3468228
  63.8035977 110.7516682  57.9645997  64.2970335 109.3331952  57.7739871
  74.2402667 120.4195682  57.6269365  73.4498210 120.4019821  57.0873864
  74.0036021 120.9583976  58.3818402  74.3600542 117.2688148  54.9402093
  74.4098547 117.1038156  55.8817616  74.2514465 116.4015407  54.5499974
  63.2436801 119.9476694  42.2294182  63.3924921 120.6312159  41.5760855
  64.0503244 119.9281784  42.7443638  71.6504304 113.2519076  56.2561400
  72.5514167 113.1125541  55.9645398  71.7252279 113.4173531  57.1959578
  65.9847110 110.6285931  55.1014587  65.1150419 110.9219497  54.8297175
  66.2206590 111.2126376  55.8221850  75.8618739 119.6885090  55.1844115
  75.5703547 120.0515070  56.0207576  75.2490870 118.9752098  55.0057447
  77.0614421 117.2537970  47.7046685  77.8961312 117.6927774  47.8684246
  77.1973550 116.7776623  46.8854931  74.1105927 114.8117705  53.6524173
  74.5860048 115.0045351  52.8443024  73.1871492 114.8676890  53.4067557
  60.9989434 115.9741872  43.2355251  60.7535475 115.0704202  43.4335461
  61.1685348 115.9759022  42.2934729  68.6886143 106.8465548  52.6180007
  69.2068087 107.5826575  52.2926495  68.3341276 107.1529541  53.4526766
  60.2685081 111.7070229  40.7341413  59.5754326 111.7814584  40.0781449
  60.0236833 110.9430573  41.2562930  68.9398738 103.2665831  48.1380903
  69.2200491 102.5989020  48.7641330  69.7249344 103.4594926  47.6255567
  66.7432206 122.4424825  39.7005930  66.1706173 123.0615012  39.2476402
  67.3165000 122.9924186  40.2345852  72.8107596 111.6883465  51.8852479
  73.7625019 111.7881562  51.9064703  72.6411046 110.8961733  52.3950563
  70.8321975 108.7739048  52.0711880  70.2371907 109.0544061  51.3758368
  70.5471672 109.2632949  52.8428621  69.9629466 122.7261975  40.8314512
  70.8960139 122.6607536  41.0347388  69.8752679 123.5618242  40.3729045
  72.5917483 122.0427845  37.7918460  72.5131114 121.7087709  38.6854218
  73.4127149 122.5349613  37.7909932  75.2895674 114.9089584  50.9994778
  75.2571994 113.9705585  51.1854462  75.8996297 114.9873621  50.2660603
  67.1279005 113.7785637  37.0421982  68.0738109 113.6491845  37.1110400
  66.7493249 113.0400299  37.5191410  75.4390162 111.7000628  51.0453061
  74.9229211 110.9159084  50.8582990  76.3230111 111.3719344  51.2099581
  73.1000889 105.4441643  47.0048874  72.9025710 105.1356732  47.8892206
  73.7100595 106.1703282  47.1346804  81.1072224 115.9705591  50.1400815
  81.8375612 115.7090879  50.7008518  80.4979169 115.2334313  50.1802883
  79.1887521 114.1113454  50.7375266  78.4620684 113.9769419  50.1291758
  78.7734808 114.4190282  51.5431984  67.0117697 117.8303383  58.5022639
  67.9320707 118.0081982  58.6962686  66.9767280 116.8859429  58.3502339
  65.3121922 111.7035614  36.9776868  64.4053377 111.4068726  37.0539581
  65.5897903 111.4065432  36.1111154  56.2299862 113.0241977  47.4275914
  55.9102646 112.1707285  47.1350288  55.6833290 113.2390555  48.1833881
  60.0079770 115.7404418  51.1445420  60.2265779 116.6721526  51.1633454
  60.4205543 115.3812393  51.9300224  66.9283987 106.2472503  43.1321109
  66.1184716 105.9019588  43.5076355  67.6168404 105.9380047  43.7208720
  68.8574536 105.3250550  44.7545405  69.4105574 105.7446004  45.4135429
  69.0944622 104.3986298  44.7968361  64.8807635 111.3137624  60.5348169
  64.7804362 112.2631981  60.4660260  64.6629177 110.9855863  59.6624239
  64.0820706 108.5622549  37.1188847  64.9439870 108.8877447  37.3784664
  64.2671050 107.7754045  36.6061913  56.0988122 116.6444889  49.3969036
  55.4051594 116.2298841  48.8838990  56.8461113 116.6865425  48.8002454
  72.2353343 107.4351075  44.2624070  71.6552012 108.0935879  43.8802122
  71.9689275 106.6128420  43.8511487  70.6856909 106.8356133  46.4645390
  71.1856688 106.9472668  45.6559709  71.3292517 106.5317186  47.1046198
  64.7438905 114.7434763  59.3513231  64.2605987 115.5435123  59.5577120
  64.8299844 114.7542708  58.3980675  58.0124865 116.5763142  47.2735050
  57.9895553 116.6750830  46.3216933  58.3225501 117.4228293  47.5952217
  60.6712242 118.6339297  51.3881665  61.6255496 118.6023240  51.3211596
  60.4724766 118.1729921  52.2031891  61.2611625 117.2040413  53.9552462
  62.0804514 117.6984492  53.9787300  61.5348432 116.2872382  53.9270030
  71.0178221 109.5951166  43.3180418  70.1304076 109.8800816  43.1000613
  71.4332210 109.4344929  42.4707695  74.3692757 109.6197687  47.0334757
  75.1453147 110.1094139  47.3059374  73.6440891 110.0455741  47.4906627
  76.8065316 110.3325306  48.0908698  77.4009806 110.0921042  47.3802006
  76.8791899 109.6132437  48.7182234  59.0262471 124.1758917  48.4051863
  58.8916939 123.4159318  47.8389861  58.6094534 124.8999817  47.9380652
  70.1621434 119.3595840  37.4128438  70.8657284 119.5645843  38.0286094
  69.4384083 119.9272602  37.6777521  70.9919245 115.1105702  43.5330708
  70.9354446 115.5674253  42.6938341  71.5447587 114.3496386  43.3553551
  74.8024050 110.8995434  44.3580828  74.5460985 110.4992069  45.1889035
  74.1776919 111.6139228  44.2330967  79.1136388 113.6391507  46.8652119
  78.5535946 113.7084696  47.6383681  78.5079892 113.4632491  46.1451615
  62.1831597 125.0728234  48.6170305  62.0663981 126.0173666  48.5148996
  61.3624043 124.7701795  49.0056105  72.0708132 119.7978370  39.4626898
  72.9053736 119.3659568  39.2804373  71.9092475 119.6260383  40.3903792
  71.7254024 116.3010483  40.8283237  71.6702828 116.1354754  39.8871681
  71.1000079 117.0086516  40.9845427  56.5146539 111.5378547  54.6544660
  57.1605402 111.0277501  55.1431885  56.3063690 112.2747229  55.2288085
  69.0399931 118.6059395  60.1536800  69.9091091 118.7800047  59.7923435
  68.5606683 119.4253812  60.0312529  65.0350149 105.8018592  40.4068556
  65.0228819 106.7460432  40.5636827  65.9273571 105.6188737  40.1128017
  63.2086111 125.7256496  51.8326234  64.1113358 125.7580106  52.1492729
  62.9823481 124.7956947  51.8472570  64.9639713 124.4787482  48.4936312
  64.0135344 124.4789344  48.3800685  65.2672199 123.7320217  47.9772347
  68.8502269 102.3961369  44.6614493  68.0834665 101.8419855  44.8071175
  69.2612974 102.4683237  45.5228644  60.8544030 108.6846164  58.7519674
  61.7175491 108.3282969  58.9622998  60.2809441 108.3460059  59.4395078
  80.6992407 130.3148021  49.5582075  81.3370817 130.1954768  48.8545415
  80.5813250 131.2628865  49.6170027  77.5082113 130.2675449  49.4943599
  77.1700625 130.1516514  48.6064134  78.3771881 129.8666614  49.4744606
  77.9901896 131.4210301  55.4529805  77.9790537 131.0263099  54.5810309
  78.1522536 130.6876373  56.0463576  75.2090392 129.0363696  38.8260540
  75.4615913 128.5145218  38.0644003  74.2714952 128.8729842  38.9287223
  80.2533675 128.0399475  46.6335283  81.0396765 127.6218898  46.2825700
  80.5172380 128.9445567  46.8016931  85.6542102 127.9774708  47.5368261
  86.3867274 127.4073925  47.7706091  84.8981458 127.5896308  47.9774767
  77.2718222 130.4001949  44.7331604  76.9076429 129.8732570  45.4444525
  78.1285338 130.0100418  44.5598089  83.1767523 121.6896282  51.9962870
  82.8450848 122.5591693  51.7724085  82.5813136 121.3732566  52.6756900
  76.9123709 125.4291849  39.7292952  77.0798111 126.2972085  40.0963423
  76.7220878 125.5919131  38.8054242  83.0696186 126.4091368  49.0756220
  82.1613063 126.3406777  48.7814981  83.0183782 126.8863313  49.9038045
  76.8912930 127.8849506  40.7139619  76.7712555 128.3306557  41.5525099
  76.1965518 128.2334824  40.1553157  77.1437052 127.8281014  57.0191117
  76.3670386 128.3874934  57.0093982  77.7827615 128.3137797  57.5405987
  84.9357832 124.6107806  50.8534094  84.2932213 124.9040340  50.2073888
  84.4312761 124.4960727  51.6587291  82.5897996 128.3570980  41.5419953
  83.5015852 128.5898366  41.3667651  82.0807643 128.9408024  40.9795032
  80.8738764 132.7795608  55.1781246  81.2822120 132.3378018  54.4335878
  80.1516025 132.2048235  55.4315439  77.2269834 127.7168214  52.5514803
  78.0731029 128.1407628  52.6949452  77.1668472 127.0601839  53.2453366
  80.3769279 125.3772583  54.2095976  80.1330211 126.1314643  53.6730252
  80.6529210 125.7557930  55.0443223  82.3307742 131.9211195  52.8873242
  82.5424637 132.5642955  52.2107623  82.2837490 131.0873512  52.4195172
  79.9333971 124.5329016  49.7909814  79.0718450 124.8310269  50.0826552
  79.9596406 124.7499415  48.8590847  75.6864426 129.1994359  43.0073185
  76.3888470 129.6515402  43.4747111  75.3545055 128.5578177  43.6353078
  74.1344788 127.7906115  57.3824394  73.5043448 128.4722396  57.6159791
  74.0280876 127.6789197  56.4377532  69.4289760 127.4577911  48.3090318
  68.6388814 127.7135440  47.8330429  69.9201008 128.2726249  48.4142359
  71.3804506 127.8222490  45.2673795  70.5835669 127.9341185  45.7857291
  71.1530098 128.1609143  44.4014686  73.4125531 122.0926881  59.7449645
  73.0192476 121.5393080  60.4197290  74.2291671 122.4037460  60.1356163
  76.3293492 123.5084760  57.3369902  77.0703205 124.1091913  57.2574364
  76.5611414 122.7662398  56.7787944  71.4734830 128.6941127  55.6148132
  71.3588345 127.7926385  55.9155230  70.6179347 128.9404824  55.2632948
  80.2750655 119.5365863  51.6134184  79.9314924 120.4267505  51.5373294
  80.6429617 119.3467521  50.7503769  80.2400937 129.5274474  40.1206619
  79.7247561 130.2979079  40.3595006  79.9678246 128.8539610  40.7439680
  77.8248048 124.3724175  45.1791857  76.9689645 123.9831025  44.9997496
  78.2375000 124.4516136  44.3191643  79.3547195 121.9070518  49.5783417
  78.8511991 121.8700653  48.7651222  79.6477802 122.8163261  49.6380073
  75.5990081 121.9909248  48.5849599  76.4643078 121.7952057  48.2255488
  75.6667590 121.7619600  49.5118955  80.0287240 127.4001566  41.9466400
  79.7237376 127.7147715  42.7976543  80.9817683 127.4782986  41.9893733
  73.2052400 124.2211456  45.9565965  73.7796152 123.9986637  45.2239158
  73.7923382 124.2900150  46.7094567  82.2631977 130.1085183  46.7630342
  82.7763859 130.7415175  47.2652052  82.9133201 129.5086378  46.3973702
  73.5321987 126.2515917  39.9761851  72.6959299 126.5890603  40.2971125
  73.3926757 126.1164897  39.0388988  75.5075068 121.0952705  44.6841035
  74.8539480 120.7801722  44.0597650  75.4655542 120.4728445  45.4100858
  76.6186272 131.3772000  36.5994327  75.7113334 131.1461253  36.7985476
  77.1157304 130.5809619  36.7868308  78.7412808 127.5834638  49.0088682
  77.8235369 127.8049585  48.8510370  79.1572952 127.6580949  48.1500390
  79.5247856 128.9826054  44.1391363  80.2719675 129.4947451  43.8298485
  79.7939445 128.6610107  44.9995756  77.7974506 131.4784595  41.1218317
  76.8885725 131.1943628  41.2190787  77.8269590 131.8983673  40.2621624
  81.9726693 126.0183170  46.1210152  81.2349450 125.5060556  46.4520395
  82.2253466 125.5783552  45.3093429  82.0738320 118.7959422  46.7151921
  82.3797197 117.9356786  46.4277836  82.7990925 119.3877042  46.5150915
  76.3459400 129.0913215  47.2228112  76.4008010 128.1387052  47.1470589
  75.5350602 129.2472654  47.7069411  74.2851760 127.7090275  44.9818491
  73.4719625 128.0084446  45.3883683  74.7810754 127.3145964  45.6992973
  79.8825972 128.1732100  53.8133385  80.2375359 128.4003573  54.6727851
  80.5298103 128.5050476  53.1910640  73.7765835 125.2808631  50.5979726
  74.4165214 125.1397390  49.9002689  72.9443365 124.9943144  50.2218328
  70.8608902 128.7254143  42.7874471  69.9306490 128.6638598  43.0044433
  70.9566374 128.2030096  41.9911113  70.7794451 125.2508956  45.3752713
  71.0401268 126.1654289  45.2661873  71.6011623 124.7833398  45.5249326
  72.2519376 126.6646713  52.5451537  72.9242430 126.4564075  51.8964186
  71.4249163 126.4668799  52.1056770  78.1544948 123.2908654  54.5617198
  77.5072863 123.9898603  54.4681675  78.9245964 123.7244798  54.9293447
  78.3309083 131.1289419  52.6214018  79.2601143 131.2800578  52.4482985
  77.9100113 131.2173439  51.7662665  72.6546874 129.9389316  53.3053975
  72.5166672 129.2069555  53.9065514  73.5651797 129.8498216  53.0238162
  81.6161821 131.8777720  38.0538453  80.9990992 131.1524548  37.9571506
  81.1478310 132.6387080  37.7105527  75.2829174 129.6509275  52.7937654
  75.9928793 129.0102467  52.7524273  75.2398482 129.9022170  53.7163835
  73.9958108 126.6374493  54.6133294  73.4595465 126.1865231  55.2654890
  73.4074817 126.7720402  53.8703758  73.4060367 126.0963144  37.1759757
  72.5289834 125.9751945  36.8122004  73.8818120 125.3049223  36.9238646
  69.7297230 125.7730501  51.6986288  69.6455418 125.1656170  50.9636698
  68.9079936 126.2639519  51.6995785  79.9020943 124.2584064  47.0656483
  80.3989643 123.5054027  46.7457554  79.1307925 124.2948381  46.4999693
  76.4855912 126.4001447  46.7928168  76.1153700 125.8472488  47.4809073
  76.9815005 125.7959581  46.2403168  84.3723275 128.8573071  45.1744941
  84.8383728 129.6901062  45.1005243  84.8230776 128.3918052  45.8790199
  82.3439938 121.2253658  49.2135842  81.4303018 121.4557885  49.3818049
  82.7733040 121.3092102  50.0649875  82.1146397 129.4143550  51.7135736
  81.4617847 129.6619457  51.0588189  82.4926777 128.6007688  51.3798213
  78.1633970 130.1563361  58.2001773  77.4874607 130.0557490  58.8704148
  78.9861604 130.0002574  58.6637770  71.8821246 123.8105438  53.0381274
  71.9462572 124.6720269  52.6258672  71.8188366 123.1979440  52.3053632
  71.3573518 125.8828570  56.6854308  71.9845557 125.5005648  57.2991833
  70.5001437 125.6642772  57.0510001  68.1339061 127.6905000  42.6172663
  68.4292502 126.7815678  42.5639717  67.2327097 127.6692739  42.2953665
  71.6633308 125.7660996  48.6000212  70.9419894 126.3796964  48.4607685
  72.4526564 126.3018761  48.5216858  74.4659622 123.1015423  54.8740863
  74.9894023 123.3477719  55.6367173  74.2471955 123.9335457  54.4544001
  69.8626903 125.3719097  42.7411988  69.5339609 124.4916476  42.5587094
  70.2166273 125.3166766  43.6288377  72.9768726 125.6592067  43.1087466
  73.3164798 126.1877988  42.3866074  73.4240846 125.9972473  43.8846032
  75.6712167 124.0429118  52.5590534  75.3308987 123.2436931  52.9611214
  74.9651173 124.3430829  51.9867367  76.3228638 121.1278430  51.0117857
  77.1454708 120.6538908  50.8896747  76.5666702 121.9068914  51.5116543
  74.9636873 124.1566689  41.3080759  75.6845235 124.5347941  40.8044475
  74.3402177 124.8755565  41.4115737  79.1067996 124.8611838  42.2439091
  79.3231610 125.7436475  41.9427919  78.6262063 124.4698051  41.5144733
  73.8467217 127.8197551  48.8209836  73.7011798 128.1337854  49.7134117
  73.3692421 128.4382451  48.2680734  75.7063600 124.8100099  48.8690725
  75.6925169 123.9141192  48.5323023  76.4236028 124.8170763  49.5029011
  77.5589731 125.2437439  50.9143853  77.3007509 126.1654510  50.9128183
  77.0274771 124.8467874  51.6044317  75.1100496 123.6914479  44.1378295
  75.2316407 122.7631125  44.3369183  74.8202538 123.7053165  43.2256611
  77.9791686 121.3769390  47.2745015  78.0013383 121.4408723  46.3196995
  78.3959745 120.5373898  47.4685521  74.5941576 125.2046476  58.3468228
  74.6429731 126.0808599  57.9645997  75.1364090 124.6623870  57.7739871
  82.4898059 128.5810994  56.2561400  83.3907921 128.4417459  55.9645398
  82.5646033 128.7465449  57.1959578  76.8240864 125.9577849  55.1014587
  75.9544173 126.2511415  54.8297175  77.0600344 126.5418294  55.8221850
  84.9499681 130.1409622  53.6524173  85.4253803 130.3337269  52.8443024
  84.0265247 130.1968808  53.4067557  79.5279898 122.1757466  52.6180007
  80.0461842 122.9118493  52.2926495  79.1735031 122.4821459  53.4526766
  71.1078836 127.0362147  40.7341413  70.4148080 127.1106502  40.0781449
  70.8630587 126.2722491  41.2562930  79.7792492 118.5957748  48.1380903
  80.0594246 117.9280937  48.7641330  80.5643099 118.7886844  47.6255567
  83.6501350 127.0175382  51.8852479  84.6018773 127.1173480  51.9064703
  83.4804801 126.2253651  52.3950563  81.6715730 124.1030966  52.0711880
  81.0765662 124.3835978  51.3758368  81.3865427 124.5924866  52.8428621
  77.9672759 129.1077555  37.0421982  78.9131864 128.9783763  37.1110400
  77.5887004 128.3692217  37.5191410  86.2783917 127.0292545  51.0453061
  85.7622965 126.2451002  50.8582990  87.1623865 126.7011262  51.2099581
  83.9394644 120.7733561  47.0048874  83.7419465 120.4648649  47.8892206
  84.5494349 121.4995200  47.1346804  76.1515676 127.0327531  36.9776868
  75.2447132 126.7360644  37.0539581  76.4291657 126.7357349  36.1111154
  77.7677742 121.5764421  43.1321109  76.9578470 121.2311506  43.5076355
  78.4562159 121.2671965  43.7208720  79.6968290 120.6542468  44.7545405
  80.2499329 121.0737921  45.4135429  79.9338377 119.7278216  44.7968361
  75.7201389 126.6429542  60.5348169  75.6198116 127.5923899  60.4660260
  75.5022931 126.3147780  59.6624239  74.9214461 123.8914467  37.1188847
  75.7833625 124.2169365  37.3784664  75.1064805 123.1045963  36.6061913
  83.0747097 122.7642993  44.2624070  82.4945766 123.4227797  43.8802122
  82.8083030 121.9420338  43.8511487  81.5250664 122.1648051  46.4645390
  82.0250442 122.2764585  45.6559709  82.1686272 121.8609104  47.1046198
  75.5832659 130.0726680  59.3513231  75.0999741 130.8727040  59.5577120
  75.6693599 130.0834625  58.3980675  81.8571975 124.9243083  43.3180418
  80.9697830 125.2092734  43.1000613  82.2725964 124.7636847  42.4707695
  85.2086511 124.9489604  47.0334757  85.9846902 125.4386057  47.3059374
  84.4834646 125.3747659  47.4906627  87.6459070 125.6617224  48.0908698
  88.2403561 125.4212960  47.3802006  87.7185654 124.9424354  48.7182234
  81.8312999 130.4397619  43.5330708  81.7748200 130.8966171  42.6938341
  82.3841342 129.6788304  43.3553551  85.6417805 126.2287351  44.3580828
  85.3854739 125.8283987  45.1889035  85.0170673 126.9431145  44.2330967
  82.5647778 131.6302401  40.8283237  82.5096582 131.4646672  39.8871681
  81.9393834 132.3378434  40.9845427  67.3540293 126.8670465  54.6544660
  67.9999157 126.3569419  55.1431885  67.1457444 127.6039147  55.2288085
  75.8743904 121.1310510  40.4068556  75.8622574 122.0752350  40.5636827
  76.7667326 120.9480655  40.1128017  79.6896023 117.7253286  44.6614493
  78.9228419 117.1711773  44.8071175  80.1006728 117.7975155  45.5228644
  71.6937784 124.0138082  58.7519674  72.5569246 123.6574887  58.9622998
  71.1203195 123.6751977  59.4395078  15.6629881  15.3458637  36.2827381
  16.3008291  15.2265385  35.5790721  15.5450724  16.2939481  36.3415334
  12.4719587  15.2986065  36.2188906  12.1338099  15.1827130  35.3309441
  13.3409356  14.8977230  36.1989912  12.9539370  16.4520917  42.1775112
  12.9428011  16.0573715  41.3055615  13.1160010  15.7186990  42.7708883
   5.8770835  18.6472733  35.0470018   6.6692127  18.3063558  34.6316317
   6.1167485  18.7567708  35.9672171   9.6746632  19.2358029  41.1254296
   9.3836497  20.1403660  41.0100962  10.3103616  19.2774557  41.8398365
  10.6002838  16.6134877  37.7155655  11.1966411  16.3890900  37.0012618
  10.6577810  15.8719623  38.3181103  20.6179577  13.0085324  34.2613568
  21.3504749  12.4384541  34.4951397  19.8618932  12.6206925  34.7020074
  18.1404997   6.7206898  38.7208177  17.8088322   7.5902309  38.4969392
  17.5450610   6.4043182  39.4002207  14.6336517  18.9219444  38.1204089
  14.3337240  19.8244483  38.0119897  14.2887576  18.6551628  38.9725242
  18.0333660  11.4401985  35.8001527  17.1250538  11.3717393  35.5060288
  17.9821256  11.9173930  36.6283352   9.6157296  25.6863765  31.0875057
   9.5381326  26.6371590  31.1663538   9.0118940  25.3409637  31.7449983
  12.1074526  12.8591630  43.7436424  11.3307860  13.4185550  43.7339289
  12.7465089  13.3448413  44.2651294  19.8995307   9.6418423  37.5779401
  19.2569687   9.9350956  36.9319195  19.3950235   9.5271343  38.3832597
  10.3620898  15.6677084  43.3054391  11.1035583  16.2062128  43.0289214
   9.6557884  16.2943372  43.4625943  15.8376238  17.8106224  41.9026552
  16.2459594  17.3688635  41.1581185  15.1153500  17.2358852  42.1560745
  12.1907308  12.7478831  39.2760109  13.0368503  13.1718244  39.4194758
  12.1305946  12.0912455  39.9698672  16.1605053  18.3707415  35.6578841
  15.5313915  18.5353129  34.9554909  15.7730715  18.7849024  36.4289805
  20.0394285  19.3061853  33.0123205  19.3545323  19.6860754  32.4620238
  20.1238134  19.9157179  33.7455153  15.3406753  10.4083199  40.9341283
  15.0967685  11.1625260  40.3975559  15.6166684  10.7868547  41.7688530
  17.2945216  16.9521812  39.6118549  17.5062112  17.5953571  38.9352930
  17.2474965  16.1184128  39.1440479  11.7133015  18.1081823  32.9228926
  12.1771360  18.3869526  32.1333549  11.4489813  17.2065267  32.7402017
   8.6057096  17.6553304  35.8608690   9.1758453  18.0840573  35.2226174
   9.1965208  17.3735889  36.5592875   9.0982262  12.8216732  44.1069701
   8.4680923  13.5033013  44.3405098   8.9918350  12.7099813  43.1622839
  18.4091044  19.8293767  37.7840906  19.2308488  19.4273954  37.5023588
  18.4053447  19.7262001  38.7357022  12.1747648  19.3777810  39.9401616
  12.2392080  19.8398217  40.7759788  11.4658572  18.7475175  40.0683926
  26.4997037  16.1732515  34.1325877  25.7460746  15.6039914  33.9769882
  26.6344578  16.1395180  35.0796512   7.1519947  21.6787112  32.4631275
   7.3286576  22.6005077  32.2752259   7.9476781  21.3645531  32.8925655
  13.5164142  21.6669484  43.9380939  13.0727996  20.8805863  43.6201843
  14.1781355  21.8548635  43.2724830   8.2751263  23.1965286  38.4641617
   8.8258688  23.0682349  37.6918611   7.4362739  23.4960175  38.1136510
  15.6145380  21.9472284  41.9662340  15.5963855  22.7681165  41.4742609
  16.5365300  21.8226359  42.1912481  12.0718434  19.4616414  42.8085848
  12.6046771  18.7004702  42.5785156  11.5432515  19.1690065  43.5510003
  18.4163993  16.7851427  35.4371707  17.7587667  17.4750688  35.5251835
  19.2204392  17.1747859  35.7805693  17.2269451  15.1395799  33.4875648
  17.7401333  15.7725791  33.9897358  17.8770675  14.5396995  33.1219009
  13.7050282  12.6145255  35.7333989  12.7872844  12.8360202  35.5755677
  14.1210426  12.6891565  34.8745696  17.9931248  20.1201801  31.6154791
  17.5393575  19.2792711  31.6719982  17.3625214  20.7563199  31.9529571
  16.4364187  21.9578297  32.5504609  16.7287161  22.5183355  31.8316975
  16.9462807  22.2506858  33.3057768  11.3997812  22.7358649  33.6398062
  11.3573991  22.9619495  32.7106594  12.3160511  22.5022023  33.7883864
  14.8463446  13.2042716  40.5378692  15.2012834  13.4314189  41.3973157
  15.4935577  13.5361093  39.9155947  20.5761183  16.3261152  31.2428021
  20.4379081  16.5162748  30.3149210  20.2197402  17.0880535  31.6996072
  20.6030562  18.3937679  36.2539292  21.0367069  18.3012968  37.1022346
  21.3162143  18.3695179  35.6159308   9.5163613  19.6121678  33.4360025
  10.3104211  19.1171998  33.2342600   8.8055305  19.0839541  33.0727731
  14.3358457  21.9939773  37.7872393  14.3895480  22.5630709  38.5550109
  13.4673239  22.1641658  37.4226430  21.4646112  18.4361380  38.7872178
  21.6582002  19.3407190  39.0331453  21.3646730  17.9768799  39.6210763
  16.5261221  18.5868122  44.3613058  16.3746727  18.3578674  43.4443142
  16.5165900  19.5438724  44.3744403  13.2946557  16.1600035  39.3459325
  14.2238617  16.3111195  39.1728292  12.8737587  16.2484056  38.4907971
  12.0934889  20.1850700  37.1157862  11.9545975  19.8169484  37.9883800
  11.3049485  20.6998339  36.9441820  12.6883041  25.2859796  28.4583399
  12.8634797  24.8147839  29.2729022  12.0015829  25.9125562  28.6864660
  13.6440104  19.5632302  34.5046700  13.3089937  19.5233072  35.4004350
  13.1444050  18.8977018  34.0317110   7.6184348  14.9699932  40.0299281
   7.4804146  14.2380171  40.6310820   8.5289271  14.8808832  39.7483469
  10.2466649  14.6819892  39.5182961  10.9566267  14.0413084  39.4769579
  10.2035957  14.9332786  40.4409142  18.2353427  21.6187245  42.4389540
  18.1765973  20.9346465  41.7720123  18.6372946  22.3606235  41.9870166
   7.2544126  28.4349159  35.2323259   7.4940724  29.0667683  35.9102278
   6.4113323  28.0837199  35.5188618  18.2370835  19.5826829  40.6703520
  17.3497613  19.2452751  40.7929919  18.8069386  18.8509860  40.9072285
  11.7671988  24.2428281  37.6364763  11.6942159  25.0483253  38.1484068
  11.3249381  24.4420247  36.8112784  11.5561768  23.4800051  31.1467585
  10.7729289  24.0221731  31.2405809  12.2554513  23.9974031  31.5461826
  22.7188175  14.9935046  35.4320081  22.7078051  15.8759762  35.0614015
  21.8505555  14.6406597  35.2374618  14.2270672  24.1415115  39.7922922
  14.9398644  24.7762580  39.7198823  13.7360700  24.2378981  38.9762923
  15.9488198  18.0466368  31.3640213  15.0144477  18.1667830  31.1944918
  16.1264867  17.1438835  31.1000223  19.3360750  13.8883687  31.8990247
  19.8021202  14.7211679  31.8250550  19.7868250  13.4228669  32.6035506
   9.2782585  21.8909559  40.6128492   9.9792045  22.5246042  40.7657887
   8.8077700  22.2324290  39.8524132  17.0783871  14.4454166  38.4381043
  16.4255321  14.6930074  37.7833496  17.4564251  13.6318304  38.1043520
  14.0391045  24.4813859  32.5409213  14.2213439  23.6635515  33.0036965
  14.8624031  24.6981552  32.1034103  14.3733210  23.4082044  29.8024262
  14.9020977  22.8974499  29.1894424  14.6361430  23.0924575  30.6669795
  13.1271444  15.1873977  44.9247080  12.4512081  15.0868107  45.5949455
  13.9499078  15.0313191  45.3883077   4.8750303  21.4245914  37.5459595
   5.4603740  20.6789602  37.6787499   4.6775142  21.7349870  38.4296259
   7.7288958  24.4597161  32.5622038   7.0599334  24.9443289  32.0786078
   7.5901828  24.7066382  33.4765416  11.8694227  26.4940905  39.1604696
  12.4212535  26.6572526  39.9253781  12.2100420  27.0845343  38.4884721
  16.7205101  21.3202162  45.0153350  17.2645005  21.9332120  44.5208305
  16.1391946  21.8781741  45.5320363  15.0062614  24.4422880  36.1468378
  14.8813754  23.6412620  35.6379324  15.6641705  24.9369074  35.6582348
  17.0697523  22.2431900  37.7747928  16.1227858  22.1237251  37.7026255
  17.4180296  21.3554398  37.8574190  14.0743956  22.0384617  33.9752280
  13.9268918  21.1101324  34.1559850  14.8997449  22.0604707  33.4909356
  17.6778078  22.8613175  35.0617153  18.6024625  22.6556037  34.9241604
  17.5093381  22.6129576  35.9706495  17.4673394  23.3798843  30.4179245
  17.6410271  22.8145265  29.6653097  17.9602285  24.1799738  30.2358735
  23.3212785  16.1435266  32.0369544  23.7643931  15.3942591  31.6388668
  22.4439295  16.1345402  31.6543276  18.4548566  22.6965607  27.5176143
  19.1499471  23.3172300  27.7363457  18.7971717  21.8460958  27.7928521
  20.3539990  20.1465313  29.0463474  20.8791314  20.4852585  28.3212794
  20.2662342  19.2112328  28.8626608  12.0160038  24.0599386  41.1753350
  12.3247165  23.8148533  42.0476050  12.8135520  24.2646025  40.6872220
  12.0380650  26.2137296  33.4058727  11.5985641  25.7213675  34.0991584
  12.7888767  25.6710264  33.1650802   4.5172989  22.4048837  33.4083355
   5.3431009  22.1052609  33.0281998   4.1667041  21.6356459  33.8573144
   9.4854522  21.7575305  35.4781028   8.8634532  21.0946010  35.1783256
  10.1559389  21.7836437  34.7954676  20.0433896  20.7798216  44.3514672
  19.2529439  20.7622355  43.8119171  19.8067250  21.3186510  45.1063708
  20.1631771  17.6290683  41.6647400  20.2129776  17.4640690  42.6062923
  20.0545694  16.7617942  41.2745281  17.4535533  13.6121611  42.9806707
  18.3545396  13.4728076  42.6890705  17.5283508  13.7776065  43.9204884
  11.7878338  10.9888465  41.8259893  10.9181648  11.2822031  41.5542482
  12.0237819  11.5728910  42.5467157  21.6649967  20.0487624  41.9089422
  21.3734776  20.4117605  42.7452883  21.0522099  19.3354632  41.7302754
  22.8645650  17.6140504  34.4291992  23.6992541  18.0530308  34.5929552
  23.0004779  17.1379157  33.6100238  19.9137156  15.1720239  40.3769480
  20.3891277  15.3647885  39.5688331  18.9902721  15.2279425  40.1312863
  18.6138825  12.0485999  38.6097785  19.5656248  12.1484097  38.6310009
  18.4442275  11.2564267  39.1195870  16.6353204   9.1341582  38.7957186
  16.0403136   9.4146595  38.1003675  16.3502901   9.6235483  39.5673927
  21.0926902  15.2692119  37.7240085  21.0603223  14.3308119  37.9099769
  21.7027526  15.3476155  36.9905910  21.2421391  12.0603162  37.7698368
  20.7260440  11.2761619  37.5828297  22.1261340  11.7321879  37.9344888
  26.9103452  16.3308125  36.8646122  27.6406841  16.0693414  37.4253825
  26.3010398  15.5936847  36.9048190  24.9918749  14.4715988  37.4620573
  24.2651913  14.3371953  36.8537064  24.5766036  14.7792817  38.2677291
  12.8148926  18.1905918  45.2267946  13.7351935  18.3684517  45.4207992
  12.7798509  17.2461963  45.0747645   5.8110998  16.1006952  37.8690727
   6.0297008  17.0324060  37.8878761   6.2236772  15.7414927  38.6545531
  10.6838864  11.6740158  47.2593476  10.5835591  12.6234515  47.1905567
  10.4660406  11.3458397  46.3869546  10.5470134  15.1037297  46.0758538
  10.0637216  15.9037657  46.2822427  10.6331073  15.1145242  45.1225982
   6.4743471  18.9941832  38.1126971   7.4286725  18.9625774  38.0456903
   6.2755995  18.5332455  38.9277197   7.0642853  17.5642948  40.6797769
   7.8835742  18.0587026  40.7032606   7.3379661  16.6474916  40.6515337
  20.1723986   9.9800221  33.7580064  20.9484376  10.4696673  34.0304681
  19.4472120  10.4058275  34.2151933  22.6096544  10.6927840  34.8154004
  23.2041035  10.4523576  34.1047313  22.6823128   9.9734971  35.4427541
   4.8293700  24.5361451  35.1297169   4.6948168  23.7761852  34.5635167
   4.4125762  25.2602351  34.6625958  24.9167617  13.9994041  33.5897426
  24.3567175  14.0687230  34.3628988  24.3111121  13.8235026  32.8696922
   7.9862826  25.4330768  35.3415612   7.8695210  26.3776201  35.2394302
   7.1655272  25.1304330  35.7301411  14.8431160  18.9661929  46.8782107
  15.7122319  19.1402581  46.5168742  14.3637911  19.7856346  46.7557836
   9.0117340  26.0859030  38.5571540   9.9144587  26.1182640  38.8738035
   8.7854710  25.1559481  38.5717876  10.7670942  24.8390017  35.2181619
   9.8166573  24.8391878  35.1045991  11.0703428  24.0922751  34.7017654
  26.5023636  30.6750555  36.2827381  27.1402046  30.5557302  35.5790721
  26.3844478  31.6231399  36.3415334  23.3113342  30.6277983  36.2188906
  22.9731853  30.5119048  35.3309441  24.1803110  30.2269148  36.1989912
  19.1700158  32.4813459  32.2085797  18.6065023  32.3903396  31.4402085
  19.0552553  31.6613364  32.6888290  23.7933125  31.7812835  42.1775112
  23.7821766  31.3865633  41.3055615  23.9553764  31.0478907  42.7708883
  16.7164590  33.9764651  35.0470018  17.5085881  33.6355476  34.6316317
  16.9561240  34.0859626  35.9672171  24.7499716  36.1484427  27.5200262
  24.0987696  36.7338508  27.1334276  25.5444079  36.6790622  27.5795299
  18.6755343  33.2373564  27.9187396  19.4486219  32.6902551  27.7800272
  19.0280742  34.1017814  28.1301858  20.5140386  34.5649947  41.1254296
  20.2230252  35.4695577  41.0100962  21.1497370  34.6066474  41.8398365
  21.4396593  31.9426795  37.7155655  22.0360165  31.7182818  37.0012618
  21.4971564  31.2011541  38.3181103  21.0121621  29.3966230  25.5505846
  21.2647142  28.8747752  24.7889309  20.0746180  29.2332376  25.6532530
  26.0564904  28.4002009  33.3580589  26.8427993  27.9821432  33.0071006
  26.3203608  29.3048101  33.5262238  26.2274981  33.8374859  28.0569246
  25.5920814  33.9109486  28.7690151  25.8972388  34.4268458  27.3788326
  31.4573331  28.3377242  34.2613568  32.1898503  27.7676459  34.4951397
  30.7012687  27.9498842  34.7020074  20.7317910  31.2994336  27.7530221
  20.6154168  30.6239240  28.4211305  20.8420170  30.8126710  26.9362374
  23.0749451  30.7604484  31.4576910  22.7107658  30.2335104  32.1689832
  23.9316567  30.3702953  31.2843396  28.9798752  22.0498816  38.7208177
  28.6482076  22.9194227  38.4969392  28.3844365  21.7335100  39.4002207
  22.7154938  25.7894383  26.4538259  22.8829340  26.6574620  26.8208730
  22.5252107  25.9521665  25.5299548  25.4730271  34.2511362  38.1204089
  25.1730994  35.1536401  38.0119897  25.1281331  33.9843545  38.9725242
  18.9242753  30.7025159  34.1540794  17.9993249  30.5701373  34.3618485
  19.1727166  31.4819378  34.6510736  28.8727415  26.7693902  35.8001527
  27.9644292  26.7009311  35.5060288  28.8215011  27.2465847  36.6283352
  22.6944159  28.2452041  27.4384926  22.5743784  28.6909091  28.2770406
  21.9996747  28.5937358  26.8798464  16.2851564  30.3458433  34.9884583
  16.4143945  30.5992911  35.9023994  15.6049015  30.9386141  34.6689238
  20.4551051  41.0155682  31.0875057  20.3775081  41.9663508  31.1663538
  19.8512694  40.6701555  31.7449983  22.9468281  28.1883548  43.7436424
  22.1701615  28.7477468  43.7339289  23.5858844  28.6740331  44.2651294
  30.7389061  24.9710341  37.5779401  30.0963442  25.2642874  36.9319195
  30.2343990  24.8563261  38.3832597  28.3929225  28.7173514  28.2665260
  29.3047081  28.9500901  28.0912957  27.8838872  29.3010558  27.7040338
  21.2014653  30.9969001  43.3054391  21.9429337  31.5354045  43.0289214
  20.4951638  31.6235290  43.4625943  26.6769993  33.1398142  41.9026552
  27.0853349  32.6980552  41.1581185  25.9547254  32.5650769  42.1560745
  23.0301063  28.0770748  39.2760109  23.8762258  28.5010162  39.4194758
  22.9699700  27.4204373  39.9698672  26.9998807  33.6999332  35.6578841
  26.3707670  33.8645046  34.9554909  26.6124469  34.1140942  36.4289805
  30.8788039  34.6353770  33.0123205  30.1939077  35.0152672  32.4620238
  30.9631888  35.2449097  33.7455153  26.1800508  25.7375117  40.9341283
  25.9361440  26.4917177  40.3975559  26.4560438  26.1160464  41.7688530
  28.1338971  32.2813729  39.6118549  28.3455866  32.9245489  38.9352930
  28.0868719  31.4476046  39.1440479  25.7365200  24.8931550  36.5155121
  24.8749679  25.1912803  36.8071858  25.7627634  25.1101949  35.5836153
  22.5526769  33.4373740  32.9228926  23.0165115  33.7161443  32.1333549
  22.2883567  32.5357185  32.7402017  19.4450850  32.9845222  35.8608690
  20.0152207  33.4132490  35.2226174  20.0358962  32.7027807  36.5592875
  21.4895655  29.5596893  29.7318491  22.1919699  30.0117936  30.1992418
  21.1576284  28.9180712  30.3598385  19.9376017  28.1508649  44.1069701
  19.3074677  28.8324930  44.3405098  19.8312105  28.0391731  43.1622839
  15.2320989  27.8180445  35.0335625  14.4420043  28.0737974  34.5575736
  15.7232237  28.6328783  35.1387666  29.2484799  35.1585685  37.7840906
  30.0702242  34.7565872  37.5023588  29.2447202  35.0553919  38.7357022
  17.1835735  28.1825025  31.9919102  16.3866898  28.2943719  32.5102597
  16.9561327  28.5211677  31.1259992  23.0141402  34.7069728  39.9401616
  23.0785835  35.1690135  40.7759788  22.3052326  34.0767093  40.0683926
  13.5158692  28.0710936  37.4650616  13.7666731  28.9557946  37.7308192
  14.0518241  27.8915537  36.6925708  37.3390792  31.5024433  34.1325877
  36.5854500  30.9331831  33.9769882  37.4738333  31.4687098  35.0796512
  22.7289420  36.3737835  29.8080597  22.5935095  37.2189371  30.2365445
  23.2699232  36.5757113  29.0446531  19.2156759  22.4529415  46.4694952
  18.8223705  21.8995614  47.1442596  20.0322900  22.7639994  46.8601469
  16.1818817  33.8913273  30.3808522  16.6943338  34.6856524  30.5314086
  16.8341530  33.1939564  30.3142123  17.9913702  37.0079030  32.4631275
  18.1680330  37.9296994  32.2752259  18.7870535  36.6937449  32.8925655
  22.1324720  23.8687294  44.0615208  22.8734434  24.4694447  43.9819671
  22.3642643  23.1264932  43.5033251  17.2766058  29.0543662  42.3393438
  17.1619574  28.1528919  42.6400537  16.4210576  29.3007358  41.9878255
  24.3557896  36.9961402  43.9380939  23.9121750  36.2097780  43.6201843
  25.0175110  37.1840552  43.2724830  19.1145017  38.5257204  38.4641617
  19.6652442  38.3974267  37.6918611  18.2756493  38.8252093  38.1136510
  26.4539134  37.2764202  41.9662340  26.4357610  38.0973083  41.4742609
  27.3759054  37.1518277  42.1912481  22.9112188  34.7908331  42.8085848
  23.4440525  34.0296620  42.5785156  22.3826270  34.4981983  43.5510003
  26.0781883  19.8968397  38.3379490  25.7346153  20.7870039  38.2618601
  26.4460846  19.7070055  37.4749075  14.1467734  32.2201928  31.1568092
  14.9842956  32.6298936  30.9401800  14.3246002  31.2801370  31.1268286
  26.0432166  29.8877008  26.8451925  25.5278790  30.6581613  27.0840313
  25.7709475  29.2142145  27.4684987  23.6279277  24.7326709  31.9037164
  22.7720873  24.3433560  31.7242802  24.0406229  24.8118670  31.0436949
  25.1578424  22.2673052  36.3028723  24.6543219  22.2303188  35.4896529
  25.4509031  23.1765795  36.3625380  21.4021310  22.3511782  35.3094905
  22.2674306  22.1554591  34.9500795  21.4698819  22.1222134  36.2364262
  31.0166440  32.6409363  28.7805099  30.2395883  32.3020523  28.3360261
  31.6957921  32.6461986  28.1060064  25.8318469  27.7604101  28.6711706
  25.5268605  28.0750250  29.5221850  26.7848911  27.8385520  28.7139039
  24.2764901  33.9194324  30.3204660  23.7486263  33.1847083  30.0077898
  23.7752404  34.6969000  30.0744629  29.2557747  32.1143344  35.4371707
  28.5981422  32.8042606  35.5251835  30.0598146  32.5039776  35.7805693
  19.0083629  24.5813990  32.6811272  19.5827381  24.3589172  31.9484465
  19.5954611  24.6502685  33.4339873  28.0663206  30.4687717  33.4875648
  28.5795088  31.1017709  33.9897358  28.7164430  29.8688913  33.1219009
  19.3353216  26.6118451  26.7007157  18.4990528  26.9493138  27.0216432
  19.1957985  26.4767431  25.7634294  21.3106296  21.4555239  31.4086341
  20.6570709  21.1404256  30.7842956  21.2686771  20.8330979  32.1346164
  22.4217501  31.7374534  23.3239633  21.5144563  31.5063788  23.5230782
  22.9188533  30.9412153  23.5113615  25.3285580  40.4472041  26.2436320
  24.6547279  40.7503738  26.8521277  25.7151402  41.2501122  25.8941777
  24.5444037  27.9437173  35.7333989  23.6266598  28.1652120  35.5755677
  24.9604180  28.0183483  34.8745696  25.3279085  29.3428588  30.8636669
  26.0750904  29.8549985  30.5543791  25.5970674  29.0212641  31.7241063
  23.6005735  31.8387129  27.8463624  22.6916954  31.5546162  27.9436093
  23.6300819  32.2586208  26.9866930  28.8325002  35.4493718  31.6154791
  28.3787329  34.6084628  31.6719982  28.2018969  36.0855117  31.9529571
  27.7757922  26.3785704  32.8455459  27.0380679  25.8663091  33.1765701
  28.0284695  25.9386086  32.0338735  27.2757941  37.2870215  32.5504609
  27.5680916  37.8475272  31.8316975  27.7856562  37.5798776  33.3057768
  27.8769549  19.1561956  33.4397228  28.1828426  18.2959320  33.1523143
  28.6022154  19.7479577  33.2396222  14.1693905  29.5592643  31.8278826
  13.9718305  28.9662004  31.1029892  13.6140569  29.2544853  32.5454765
  22.1490629  29.4515750  33.9473419  22.2039239  28.4989586  33.8715896
  21.3381831  29.6075189  34.4314717  23.2981823  33.3795873  25.1851702
  22.8601252  32.6631732  24.7257339  24.0392263  33.6071987  24.6236794
  20.0882989  28.0692809  31.7063798  19.2750854  28.3686980  32.1128990
  20.5841983  27.6748498  32.4238280  22.2391567  38.0650566  33.6398062
  22.1967745  38.2911413  32.7106594  23.1554265  37.8313941  33.7883864
  25.6857200  28.5334634  40.5378692  26.0406588  28.7606107  41.3973157
  26.3329332  28.8653011  39.9155947  31.4154937  31.6553070  31.2428021
  31.2772836  31.8454666  30.3149210  31.0591156  32.4172452  31.6996072
  19.5797063  25.6411165  37.3225033  20.2196443  25.4999924  36.6247996
  18.7474594  25.3545678  36.9463635  31.4424317  33.7229597  36.2539292
  31.8760824  33.6304886  37.1022346  32.1555898  33.6987097  35.6159308
  20.3557367  34.9413595  33.4360025  21.1497966  34.4463915  33.2342600
  19.6449060  34.4131458  33.0727731  25.1752212  37.3231691  37.7872393
  25.2289234  37.8922627  38.5550109  24.3066993  37.4933576  37.4226430
  16.6640131  29.0856677  29.5119778  15.7337719  29.0241132  29.7289740
  16.7597603  28.5632630  28.7156419  16.5825680  25.6111490  32.0998020
  16.8432497  26.5256823  31.9907180  17.4042852  25.1435932  32.2494632
  18.0550605  27.0249247  39.2696844  18.7273659  26.8166609  38.6209493
  17.2280392  26.8271333  38.8302076  32.3039866  33.7653297  38.7872178
  32.4975757  34.6699108  39.0331453  32.2040485  33.3060716  39.6210763
  23.9576177  23.6511188  41.2862505  23.3104092  24.3501138  41.1926981
  24.7277193  24.0847332  41.6538753  27.3654975  33.9160040  44.3613058
  27.2140482  33.6870592  43.4443142  27.3559655  34.8730641  44.3744403
  24.1340312  31.4891953  39.3459325  25.0632372  31.6403112  39.1728292
  23.7131342  31.5775974  38.4907971  22.9328643  35.5142617  37.1157862
  22.7939729  35.1461402  37.9883800  22.1443240  36.0290257  36.9441820
  23.5276795  40.6151714  28.4583399  23.7028551  40.1439757  29.2729022
  22.8409583  41.2417480  28.6864660  24.4833859  34.8924220  34.5046700
  24.1483691  34.8524990  35.4004350  23.9837804  34.2268936  34.0317110
  18.4578102  30.2991850  40.0299281  18.3197900  29.5672089  40.6310820
  19.3683026  30.2100750  39.7483469  27.4193050  32.2380254  24.7783760
  26.8022221  31.5127082  24.6816812  26.9509539  32.9989615  24.4350834
  21.0860403  30.0111809  39.5182961  21.7960022  29.3705001  39.4769579
  21.0429711  30.2624704  40.4409142  29.0747182  36.9479163  42.4389540
  29.0159728  36.2638383  41.7720123  29.4766700  37.6898153  41.9870166
  19.7989337  26.9977027  41.3378600  19.2626694  26.5467766  41.9900197
  19.2106046  27.1322936  40.5949065  18.0937881  43.7641076  35.2323259
  18.3334479  44.3959601  35.9102278  17.2507077  43.4129116  35.5188618
  29.0764589  34.9118747  40.6703520  28.1891368  34.5744668  40.7929919
  29.6463140  34.1801778  40.9072285  10.7293736  31.2442838  33.9946571
  11.4164776  30.9304568  33.4067586  10.5741865  32.1484203  33.7213823
  15.5328458  26.1333035  38.4231595  15.4486647  25.5258704  37.6882005
  14.7111165  26.6242053  38.4241091  22.6065742  39.5720199  37.6364763
  22.5335914  40.3775170  38.1484068  22.1643136  39.7712165  36.8112784
  22.3955522  38.8091969  31.1467585  21.6123044  39.3513649  31.2405809
  23.0948267  39.3265949  31.5461826  25.7052172  24.6186598  33.7901790
  26.2020872  23.8656561  33.4702860  24.9339154  24.6550915  33.2244999
  33.5581930  30.3226964  35.4320081  33.5471806  31.2051679  35.0614015
  32.6899309  29.9698515  35.2374618  25.0664426  39.4707033  39.7922922
  25.7792398  40.1054498  39.7198823  24.5754455  39.5670899  38.9762923
  26.7881953  33.3758286  31.3640213  25.8538232  33.4959748  31.1944918
  26.9658621  32.4730752  31.1000223  22.2887141  26.7603981  33.5173475
  21.9184928  26.2075022  34.2054380  22.7846233  26.1562115  32.9648475
  30.1754504  29.2175605  31.8990247  30.6414956  30.0503596  31.8250550
  30.6262005  28.7520586  32.6035506  20.1176340  37.2201476  40.6128492
  20.8185799  37.8537959  40.7657887  19.6471455  37.5616208  39.8524132
  28.2430735  35.5619426  28.8976399  28.5190579  35.4476021  29.8070274
  27.3735234  35.1636911  28.8588573  28.1471167  21.5856192  35.9381149
  27.2334247  21.8160419  36.1063356  28.5764268  21.6694636  36.7895181
  27.9177625  29.7746084  38.4381043  27.2649076  30.0221991  37.7833496
  28.2958005  28.9610222  38.1043520  24.8784799  39.8105777  32.5409213
  25.0607194  38.9927433  33.0036965  25.7017785  40.0273469  32.1034103
  25.2126965  38.7373962  29.8024262  25.7414731  38.2266417  29.1894424
  25.4755184  38.4216492  30.6669795  23.9665199  30.5165895  44.9247080
  23.2905836  30.4160024  45.5949455  24.7892832  30.3605109  45.3883077
  15.7144058  36.7537831  37.5459595  16.2997494  36.0081519  37.6787499
  15.5168896  37.0641788  38.4296259  18.5682713  39.7889079  32.5622038
  17.8993088  40.2735206  32.0786078  18.4295583  40.0358299  33.4765416
  10.3061712  29.3243432  36.2664038  10.3445812  28.7907022  37.0601156
   9.8002005  28.7978637  35.6475015  22.7087981  41.8232822  39.1604696
  23.2606289  41.9864444  39.9253781  23.0494175  42.4137260  38.4884721
  17.6852475  24.1707972  39.7626581  17.7493801  25.0322803  39.3503978
  17.6219595  23.5581974  39.0298939  17.1604747  26.2431105  43.4099615
  17.7876786  25.8608182  44.0237139  16.3032666  26.0245307  43.7755307
  27.5598856  36.6494080  45.0153350  28.1038760  37.2624038  44.5208305
  26.9785701  37.2073658  45.5320363  13.9370290  28.0507534  29.3417970
  14.2323731  27.1418212  29.2885023  13.0358326  28.0295273  29.0198972
  25.8456369  39.7714798  36.1468378  25.7207508  38.9704538  35.6379324
  26.5035460  40.2660991  35.6582348  17.4664537  26.1263530  35.3245518
  16.7451123  26.7399498  35.1852992  18.2557793  26.6621295  35.2462164
  27.9091277  37.5723818  37.7747928  26.9621613  37.4529169  37.7026255
  28.2574050  36.6846316  37.8574190  20.2690850  23.4617957  41.5986170
  20.7925252  23.7080253  42.3612479  20.0503184  24.2937992  41.1789307
  15.6658131  25.7321631  29.4657295  15.3370838  24.8519010  29.2832401
  16.0197502  25.6769300  30.3533684  24.9137710  37.3676534  33.9752280
  24.7662673  36.4393242  34.1559850  25.7391204  37.3896625  33.4909356
  18.7799955  26.0194601  29.8332773  19.1196027  26.5480523  29.1111381
  19.2272075  26.3575007  30.6091339  28.5171832  38.1905093  35.0617153
  29.4418380  37.9847954  34.9241604  28.3487136  37.9421494  35.9706495
  21.4743395  24.4031652  39.2835841  21.1340216  23.6039465  39.6856520
  20.7682402  24.7033363  38.7112674  22.1259867  21.4880964  37.7363164
  22.9485937  21.0141443  37.6142054  22.3697931  22.2671448  38.2361850
  20.7668102  24.5169223  28.0326065  21.4876464  24.8950476  27.5289782
  20.1433406  25.2358100  28.1361043  24.9099225  25.2214372  28.9684398
  25.1262839  26.1039010  28.6673226  24.4293292  24.8300585  28.2390040
  19.6498446  28.1800085  35.5455142  19.5043027  28.4940388  36.4379424
  19.1723650  28.7984985  34.9926041  21.5094829  25.1702633  35.5936032
  21.4956398  24.2743726  35.2568330  22.2267257  25.1773297  36.2274318
  23.3620960  25.6039973  37.6389159  23.1038737  26.5257044  37.6373490
  22.8306000  25.2070408  38.3289623  28.3067148  38.7090760  30.4179245
  28.4804026  38.1437183  29.6653097  28.7996040  39.5091655  30.2358735
  14.1244108  30.7205429  38.4842803  13.5797576  31.4965237  38.6163078
  15.0023458  31.0676234  38.3261925  20.9131725  24.0517013  30.8623602
  21.0347636  23.1233659  31.0614489  20.6233767  24.0655699  29.9501917
  23.7822915  21.7371924  33.9990322  23.8044612  21.8011257  33.0442301
  24.1990974  20.8976432  34.1930828  34.1606540  31.4727183  32.0369544
  34.6037686  30.7234509  31.6388668  33.2833050  31.4637320  31.6543276
  29.2942321  38.0257525  27.5176143  29.9893226  38.6464217  27.7363457
  29.6365471  37.1752876  27.7928521  14.9110130  29.8475326  41.3772960
  14.1691866  29.9957961  41.9637591  14.5902874  30.1083591  40.5139710
  31.1933744  35.4757230  29.0463474  31.7185068  35.8144503  28.3212794
  31.1056097  34.5404246  28.8626608  22.8553793  39.3891304  41.1753350
  23.1640919  39.1440451  42.0476050  23.6529275  39.5937942  40.6872220
  22.8774405  41.5429214  33.4058727  22.4379395  41.0505592  34.0991584
  23.6282522  41.0002181  33.1650802  15.3566744  37.7340754  33.4083355
  16.1824764  37.4344526  33.0281998  15.0060796  36.9648377  33.8573144
  20.3248277  37.0867223  35.4781028  19.7028286  36.4237928  35.1783256
  20.9953144  37.1128355  34.7954676  13.5575349  35.6527081  34.3672288
  12.7207257  35.2249255  34.1856290  13.5298994  35.8459524  35.3043080
  20.3972804  25.5649011  45.0713535  20.4460960  26.4411133  44.6891304
  20.9395319  25.0226404  44.4985178  30.8827650  36.1090134  44.3514672
  30.0923194  36.0914273  43.8119171  30.6461005  36.6478428  45.1063708
  31.0025525  32.9582600  41.6647400  31.0523530  32.7932608  42.6062923
  30.8939448  32.0909859  41.2745281  19.8861784  35.6371146  28.9539489
  20.0349904  36.3206610  28.3006162  20.6928227  35.6176236  29.4688945
  28.2929288  28.9413528  42.9806707  29.1939150  28.8019993  42.6890705
  28.3677262  29.1067983  43.9204884  22.6272093  26.3180383  41.8259893
  21.7575402  26.6113949  41.5542482  22.8631573  26.9020828  42.5467157
  32.5043722  35.3779542  41.9089422  32.2128530  35.7409522  42.7452883
  31.8915853  34.6646550  41.7302754  33.7039404  32.9432422  34.4291992
  34.5386296  33.3822226  34.5929552  33.8398533  32.4671075  33.6100238
  30.7530910  30.5012156  40.3769480  31.2285032  30.6939803  39.5688331
  29.8296476  30.5571342  40.1312863  17.6414417  31.6636324  29.9600558
  17.3960459  30.7598654  30.1580768  17.8110331  31.6653474  29.0180036
  25.3311127  22.5360000  39.3425314  25.8493071  23.2721027  39.0171802
  24.9766259  22.8423993  40.1772073  16.9110064  27.3964681  27.4586719
  16.2179309  27.4709036  26.8026755  16.6661816  26.6325025  27.9808236
  25.5823721  18.9560283  34.8626210  25.8625475  18.2883472  35.4886637
  26.3674328  19.1489378  34.3500874  23.3857189  38.1319276  26.4251236
  22.8131156  38.7509464  25.9721708  23.9589983  38.6818638  26.9591158
  29.4532579  27.3777917  38.6097785  30.4050002  27.4776014  38.6310009
  29.2836030  26.5856185  39.1195870  27.4746959  24.4633500  38.7957186
  26.8796891  24.7438512  38.1003675  27.1896655  24.9527401  39.5673927
  26.6054449  38.4156427  27.5559819  27.5385122  38.3501988  27.7592694
  26.5177662  39.2512693  27.0974351  29.2342466  37.7322297  24.5163766
  29.1556097  37.3982161  25.4099524  30.0552133  38.2244065  24.5155239
  31.9320657  30.5984036  37.7240085  31.8996977  29.6600037  37.9099769
  32.5421281  30.6768073  36.9905910  23.7703988  29.4680089  23.7667289
  24.7163093  29.3386297  23.8355707  23.3918233  28.7294751  24.2436717
  32.0815145  27.3895080  37.7698368  31.5654194  26.6053536  37.5828297
  32.9655094  27.0613796  37.9344888  29.7425872  21.1336095  33.7294181
  29.5450694  20.8251183  34.6137513  30.3525578  21.8597734  33.8592111
  37.7497207  31.6600043  36.8646122  38.4800595  31.3985331  37.4253825
  37.1404152  30.9228765  36.9048190  35.8312504  29.8007906  37.4620573
  35.1045668  29.6663871  36.8537064  35.4159791  30.1084734  38.2677291
  23.6542680  33.5197835  45.2267946  24.5745690  33.6976434  45.4207992
  23.6192263  32.5753881  45.0747645  21.9546905  27.3930066  23.7022174
  21.0478360  27.0963178  23.7784888  22.2322886  27.0959884  22.8356460
  12.8724845  28.7136429  34.1521221  12.5527630  27.8601737  33.8595595
  12.3258274  28.9285007  34.9079188  16.6504753  31.4298870  37.8690727
  16.8690763  32.3615978  37.8878761  17.0630527  31.0706844  38.6545531
  23.5708971  21.9366955  29.8566415  22.7609699  21.5914040  30.2321662
  24.2593388  21.6274499  30.4454027  25.4999519  21.0145002  31.4790712
  26.0530558  21.4340456  32.1380735  25.7369605  20.0880750  31.5213668
  21.5232618  27.0032076  47.2593476  21.4229345  27.9526433  47.1905567
  21.3054160  26.6750315  46.3869546  12.7413105  32.3339340  36.1214342
  12.0476577  31.9193293  35.6084297  13.4886096  32.3759877  35.5247761
  28.8778326  23.1245527  30.9869376  28.2976995  23.7830331  30.6047429
  28.6114259  22.3022872  30.5756794  27.3281892  22.5250585  33.1890697
  27.8281671  22.6367120  32.3805016  27.9717500  22.2211638  33.8291505
  21.3863888  30.4329215  46.0758538  20.9030970  31.2329575  46.2822427
  21.4724827  30.4437159  45.1225982  14.6549848  32.2657594  33.9980357
  14.6320536  32.3645282  33.0462240  14.9650484  33.1122745  34.3197523
  17.3137226  34.3233749  38.1126971  18.2680479  34.2917692  38.0456903
  17.1149749  33.8624373  38.9277197  17.9036608  32.8934865  40.6797769
  18.7229497  33.3878944  40.7032606  18.1773416  31.9766833  40.6515337
  27.6603204  25.2845618  30.0425725  26.7729059  25.5695268  29.8245919
  28.0757193  25.1239381  29.1953002  31.0117740  25.3092139  33.7580064
  31.7878130  25.7988591  34.0304681  30.2865874  25.7350193  34.2151933
  33.4490299  26.0219758  34.8154004  34.0434790  25.7815494  34.1047313
  33.5216883  25.3026888  35.4427541  15.6687455  39.8653369  35.1297169
  15.5341923  39.1053770  34.5635167  15.2519517  40.5894269  34.6625958
  26.8046418  35.0490292  24.1373745  27.5082268  35.2540295  24.7531400
  26.0809066  35.6167054  24.4022828  27.6344228  30.8000154  30.2576015
  27.5779429  31.2568705  29.4183647  28.1872570  30.0390838  30.0798858
  31.4449034  26.5889885  31.0826134  31.1885968  26.1886521  31.9134342
  30.8201902  27.3033679  30.9576273  35.7561372  29.3285959  33.5897426
  35.1960930  29.3979148  34.3628988  35.1504875  29.1526943  32.8696922
  18.8256580  40.7622686  35.3415612  18.7088965  41.7068118  35.2394302
  18.0049027  40.4596247  35.7301411  28.7133115  35.4872822  26.1872205
  29.5478719  35.0554020  26.0049679  28.5517458  35.3154835  27.1149099
  28.3679007  31.9904935  27.5528544  28.3127811  31.8249206  26.6116988
  27.7425062  32.6980968  27.7090734  13.1571522  27.2272999  41.3789966
  13.8030386  26.7171953  41.8677191  12.9488673  27.9641681  41.9533391
  25.6824914  34.2953847  46.8782107  26.5516074  34.4694499  46.5168742
  25.2031666  35.1148264  46.7557836  21.6775133  21.4913044  27.1313862
  21.6653802  22.4354884  27.2882133  22.5698555  21.3083189  26.8373324
  19.8511095  41.4150948  38.5571540  20.7538341  41.4474558  38.8738035
  19.6248465  40.4851399  38.5717876  21.6064697  40.1681934  35.2181619
  20.6560328  40.1683796  35.1045991  21.9097183  39.4214669  34.7017654
  25.4927252  18.0855820  31.3859799  24.7259648  17.5314307  31.5316482
  25.9037957  18.1577689  32.2473951  17.4969013  24.3740616  45.4764980
  18.3600475  24.0177421  45.6868305  16.9234424  24.0354511  46.1640385
  37.3417390  46.0042473  36.2827381  37.9795800  45.8849220  35.5790721
  37.2238233  46.9523317  36.3415334  34.1507096  45.9569901  36.2188906
  33.8125608  45.8410965  35.3309441  35.0196865  45.5561066  36.1989912
  30.0093912  47.8105377  32.2085797  29.4458777  47.7195314  31.4402085
  29.8946307  46.9905282  32.6888290  34.6326879  47.1104752  42.1775112
  34.6215520  46.7157551  41.3055615  34.7947519  46.3770825  42.7708883
  27.5558344  49.3056569  35.0470018  28.3479636  48.9647393  34.6316317
  27.7954994  49.4151544  35.9672171  35.5893471  51.4776345  27.5200262
  34.9381451  52.0630425  27.1334276  36.3837834  52.0082540  27.5795299
  29.5149098  48.5665482  27.9187396  30.2879974  48.0194469  27.7800272
  29.8674497  49.4309731  28.1301858  31.3534140  49.8941864  41.1254296
  31.0624006  50.7987495  41.0100962  31.9891125  49.9358392  41.8398365
  32.2790347  47.2718713  37.7155655  32.8753920  47.0474735  37.0012618
  32.3365319  46.5303458  38.3181103  31.8515376  44.7258148  25.5505846
  32.1040896  44.2039669  24.7889309  30.9139935  44.5624294  25.6532530
  36.8958659  43.7293926  33.3580589  37.6821748  43.3113350  33.0071006
  37.1597363  44.6340019  33.5262238  37.0668736  49.1666777  28.0569246
  36.4314569  49.2401403  28.7690151  36.7366142  49.7560376  27.3788326
  42.2967086  43.6669160  34.2613568  43.0292258  43.0968376  34.4951397
  41.5406441  43.2790760  34.7020074  31.5711664  46.6286254  27.7530221
  31.4547923  45.9531157  28.4211305  31.6813924  46.1418628  26.9362374
  33.9143205  46.0896401  31.4576910  33.5501413  45.5627022  32.1689832
  34.7710321  45.6994870  31.2843396  39.8192506  37.3790734  38.7208177
  39.4875831  38.2486145  38.4969392  39.2238119  37.0627018  39.4002207
  33.5548692  41.1186301  26.4538259  33.7223095  41.9866537  26.8208730
  33.3645861  41.2813583  25.5299548  36.3124026  49.5803280  38.1204089
  36.0124749  50.4828319  38.0119897  35.9675085  49.3135463  38.9725242
  29.7636507  46.0317077  34.1540794  28.8387004  45.8993291  34.3618485
  30.0120920  46.8111296  34.6510736  39.7121169  42.0985820  35.8001527
  38.8038047  42.0301228  35.5060288  39.6608765  42.5757765  36.6283352
  33.5337913  43.5743958  27.4384926  33.4137538  44.0201009  28.2770406
  32.8390502  43.9229276  26.8798464  27.1245318  45.6750350  34.9884583
  27.2537699  45.9284829  35.9023994  26.4442769  46.2678058  34.6689238
  31.2944805  56.3447600  31.0875057  31.2168835  57.2955425  31.1663538
  30.6906449  55.9993473  31.7449983  33.7862035  43.5175466  43.7436424
  33.0095369  44.0769386  43.7339289  34.4252598  44.0032249  44.2651294
  41.5782816  40.3002258  37.5779401  40.9357196  40.5934792  36.9319195
  41.0737744  40.1855179  38.3832597  39.2322979  44.0465432  28.2665260
  40.1440836  44.2792818  28.0912957  38.7232627  44.6302476  27.7040338
  32.0408407  46.3260919  43.3054391  32.7823092  46.8645963  43.0289214
  31.3345393  46.9527208  43.4625943  37.5163747  48.4690059  41.9026552
  37.9247103  48.0272470  41.1581185  36.7941009  47.8942687  42.1560745
  33.8694817  43.4062666  39.2760109  34.7156012  43.8302080  39.4194758
  33.8093455  42.7496290  39.9698672  37.8392562  49.0291250  35.6578841
  37.2101424  49.1936964  34.9554909  37.4518224  49.4432860  36.4289805
  41.7181794  49.9645688  33.0123205  41.0332832  50.3444589  32.4620238
  41.8025643  50.5741015  33.7455153  37.0194262  41.0667035  40.9341283
  36.7755194  41.8209095  40.3975559  37.2954193  41.4452382  41.7688530
  38.9732725  47.6105647  39.6118549  39.1849620  48.2537407  38.9352930
  38.9262473  46.7767963  39.1440479  36.5758954  40.2223468  36.5155121
  35.7143433  40.5204721  36.8071858  36.6021389  40.4393866  35.5836153
  33.3920524  48.7665658  32.9228926  33.8558869  49.0453361  32.1333549
  33.1277322  47.8649103  32.7402017  30.2844605  48.3137140  35.8608690
  30.8545962  48.7424408  35.2226174  30.8752717  48.0319724  36.5592875
  32.3289410  44.8888810  29.7318491  33.0313453  45.3409854  30.1992418
  31.9970038  44.2472629  30.3598385  30.7769771  43.4800567  44.1069701
  30.1468432  44.1616848  44.3405098  30.6705859  43.3683649  43.1622839
  26.0714744  43.1472363  35.0335625  25.2813798  43.4029892  34.5575736
  26.5625991  43.9620701  35.1387666  40.0878553  50.4877602  37.7840906
  40.9095997  50.0857790  37.5023588  40.0840956  50.3845836  38.7357022
  28.0229489  43.5116942  31.9919102  27.2260652  43.6235637  32.5102597
  27.7955081  43.8503595  31.1259992  33.8535157  50.0361646  39.9401616
  33.9179589  50.4982053  40.7759788  33.1446081  49.4059011  40.0683926
  24.3552447  43.4002854  37.4650616  24.6060485  44.2849863  37.7308192
  24.8911995  43.2207455  36.6925708  48.1784546  46.8316351  34.1325877
  47.4248255  46.2623749  33.9769882  48.3132087  46.7979015  35.0796512
  33.5683174  51.7029753  29.8080597  33.4328849  52.5481289  30.2365445
  34.1092987  51.9049031  29.0446531  30.0550514  37.7821333  46.4694952
  29.6617459  37.2287531  47.1442596  30.8716654  38.0931911  46.8601469
  27.0212572  49.2205191  30.3808522  27.5337092  50.0148441  30.5314086
  27.6735285  48.5231482  30.3142123  28.8307456  52.3370947  32.4631275
  29.0074085  53.2588912  32.2752259  29.6264290  52.0229367  32.8925655
  32.9718475  39.1979212  44.0615208  33.7128188  39.7986365  43.9819671
  33.2036398  38.4556850  43.5033251  28.1159813  44.3835579  42.3393438
  28.0013328  43.4820837  42.6400537  27.2604331  44.6299276  41.9878255
  35.1951651  52.3253320  43.9380939  34.7515505  51.5389698  43.6201843
  35.8568864  52.5132470  43.2724830  29.9538772  53.8549121  38.4641617
  30.5046197  53.7266185  37.6918611  29.1150248  54.1544010  38.1136510
  37.2932889  52.6056120  41.9662340  37.2751364  53.4265001  41.4742609
  38.2152809  52.4810195  42.1912481  33.7505943  50.1200249  42.8085848
  34.2834280  49.3588537  42.5785156  33.2220024  49.8273901  43.5510003
  36.9175638  35.2260315  38.3379490  36.5739907  36.1161957  38.2618601
  37.2854600  35.0361973  37.4749075  24.9861488  47.5493845  31.1568092
  25.8236710  47.9590854  30.9401800  25.1639756  46.6093288  31.1268286
  36.8825921  45.2168926  26.8451925  36.3672544  45.9873531  27.0840313
  36.6103229  44.5434062  27.4684987  34.4673032  40.0618627  31.9037164
  33.6114628  39.6725477  31.7242802  34.8799983  40.1410588  31.0436949
  35.9972178  37.5964970  36.3028723  35.4936974  37.5595105  35.4896529
  36.2902785  38.5057713  36.3625380  32.2415064  37.6803700  35.3094905
  33.1068061  37.4846509  34.9500795  32.3092573  37.4514052  36.2364262
  41.8560195  47.9701281  28.7805099  41.0789637  47.6312440  28.3360261
  42.5351676  47.9753904  28.1060064  36.6712224  43.0896018  28.6711706
  36.3662359  43.4042167  29.5221850  37.6242666  43.1677438  28.7139039
  35.1158656  49.2486241  30.3204660  34.5880017  48.5139001  30.0077898
  34.6146158  50.0260918  30.0744629  40.0951502  47.4435262  35.4371707
  39.4375176  48.1334523  35.5251835  40.8991901  47.8331694  35.7805693
  29.8477383  39.9105908  32.6811272  30.4221135  39.6881089  31.9484465
  30.4348366  39.9794602  33.4339873  38.9056960  45.7979635  33.4875648
  39.4188842  46.4309627  33.9897358  39.5558184  45.1980830  33.1219009
  30.1746970  41.9410369  26.7007157  29.3384283  42.2785055  27.0216432
  30.0351740  41.8059349  25.7634294  32.1500051  36.7847157  31.4086341
  31.4964463  36.4696174  30.7842956  32.1080525  36.1622897  32.1346164
  33.2611256  47.0666452  23.3239633  32.3538318  46.8355705  23.5230782
  33.7582288  46.2704071  23.5113615  36.1679335  55.7763959  26.2436320
  35.4941033  56.0795656  26.8521277  36.5545157  56.5793039  25.8941777
  35.3837791  43.2729090  35.7333989  34.4660353  43.4944037  35.5755677
  35.7997935  43.3475401  34.8745696  36.1672839  44.6720506  30.8636669
  36.9144658  45.1841903  30.5543791  36.4364429  44.3504559  31.7241063
  34.4399489  47.1679047  27.8463624  33.5310708  46.8838079  27.9436093
  34.4694573  47.5878125  26.9866930  39.6718757  50.7785636  31.6154791
  39.2181084  49.9376546  31.6719982  39.0412723  51.4147034  31.9529571
  38.6151676  41.7077622  32.8455459  37.8774433  41.1955008  33.1765701
  38.8678450  41.2678004  32.0338735  38.1151696  52.6162133  32.5504609
  38.4074670  53.1767190  31.8316975  38.6250316  52.9090694  33.3057768
  38.7163304  34.4853874  33.4397228  39.0222180  33.6251238  33.1523143
  39.4415908  35.0771494  33.2396222  25.0087660  44.8884561  31.8278826
  24.8112059  44.2953921  31.1029892  24.4534324  44.5836771  32.5454765
  32.9884383  44.7807667  33.9473419  33.0432993  43.8281504  33.8715896
  32.1775585  44.9367106  34.4314717  34.1375577  48.7087790  25.1851702
  33.6995007  47.9923649  24.7257339  34.8786018  48.9363905  24.6236794
  30.9276743  43.3984727  31.7063798  30.1144609  43.6978898  32.1128990
  31.4235737  43.0040416  32.4238280  33.0785321  53.3942484  33.6398062
  33.0361500  53.6203330  32.7106594  33.9948020  53.1605858  33.7883864
  36.5250955  43.8626551  40.5378692  36.8800343  44.0898025  41.3973157
  37.1723086  44.1944928  39.9155947  42.2548692  46.9844987  31.2428021
  42.1166590  47.1746583  30.3149210  41.8984911  47.7464370  31.6996072
  30.4190818  40.9703082  37.3225033  31.0590197  40.8291842  36.6247996
  29.5868348  40.6837596  36.9463635  42.2818071  49.0521514  36.2539292
  42.7154578  48.9596803  37.1022346  42.9949652  49.0279015  35.6159308
  31.1951122  50.2705513  33.4360025  31.9891720  49.7755833  33.2342600
  30.4842814  49.7423376  33.0727731  36.0145966  52.6523608  37.7872393
  36.0682989  53.2214545  38.5550109  35.1460748  52.8225493  37.4226430
  27.5033885  44.4148595  29.5119778  26.5731473  44.3533050  29.7289740
  27.5991357  43.8924547  28.7156419  27.4219434  40.9403407  32.0998020
  27.6826252  41.8548741  31.9907180  28.2436607  40.4727850  32.2494632
  28.8944360  42.3541165  39.2696844  29.5667413  42.1458527  38.6209493
  28.0674146  42.1563251  38.8302076  43.1433621  49.0945215  38.7872178
  43.3369511  49.9991025  39.0331453  43.0434239  48.6352634  39.6210763
  34.7969932  38.9803106  41.2862505  34.1497847  39.6793055  41.1926981
  35.5670947  39.4139249  41.6538753  38.2048730  49.2451958  44.3613058
  38.0534236  49.0162509  43.4443142  38.1953409  50.2022559  44.3744403
  34.9734066  46.8183870  39.3459325  35.9026126  46.9695030  39.1728292
  34.5525096  46.9067891  38.4907971  33.7722398  50.8434535  37.1157862
  33.6333484  50.4753319  37.9883800  32.9836994  51.3582174  36.9441820
  34.3670550  55.9443631  28.4583399  34.5422306  55.4731675  29.2729022
  33.6803338  56.5709398  28.6864660  35.3227613  50.2216138  34.5046700
  34.9877446  50.1816908  35.4004350  34.8231559  49.5560854  34.0317110
  29.2971857  45.6283768  40.0299281  29.1591655  44.8964006  40.6310820
  30.2076780  45.5392668  39.7483469  38.2586805  47.5672172  24.7783760
  37.6415975  46.8419000  24.6816812  37.7903293  48.3281532  24.4350834
  31.9254158  45.3403727  39.5182961  32.6353776  44.6996919  39.4769579
  31.8823466  45.5916622  40.4409142  39.9140936  52.2771080  42.4389540
  39.8553482  51.5930300  41.7720123  40.3160455  53.0190070  41.9870166
  30.6383092  42.3268945  41.3378600  30.1020449  41.8759683  41.9900197
  30.0499800  42.4614854  40.5949065  28.9331635  59.0932994  35.2323259
  29.1728233  59.7251518  35.9102278  28.0900832  58.7421034  35.5188618
  30.0485351  41.7857596  23.9005064  29.1714817  41.6646397  23.5367311
  30.5243104  40.9943675  23.6483953  39.9158344  50.2410664  40.6703520
  39.0285122  49.9036586  40.7929919  40.4856895  49.5093695  40.9072285
  21.5687491  46.5734756  33.9946571  22.2558531  46.2596486  33.4067586
  21.4135619  47.4776121  33.7213823  26.3722213  41.4624953  38.4231595
  26.2880402  40.8550622  37.6882005  25.5504919  41.9533971  38.4241091
  33.4459497  54.9012117  37.6364763  33.3729668  55.7067088  38.1484068
  33.0036890  55.1004082  36.8112784  33.2349277  54.1383887  31.1467585
  32.4516798  54.6805567  31.2405809  33.9342022  54.6557866  31.5461826
  36.5445927  39.9478516  33.7901790  37.0414626  39.1948478  33.4702860
  35.7732908  39.9842833  33.2244999  44.3975684  45.6518882  35.4320081
  44.3865560  46.5343597  35.0614015  43.5293064  45.2990432  35.2374618
  35.9058180  54.7998951  39.7922922  36.6186153  55.4346415  39.7198823
  35.4148209  54.8962817  38.9762923  37.6275707  48.7050203  31.3640213
  36.6931986  48.8251666  31.1944918  37.8052376  47.8022670  31.1000223
  33.1280895  42.0895899  33.5173475  32.7578683  41.5366939  34.2054380
  33.6239988  41.4854033  32.9648475  41.0148259  44.5467523  31.8990247
  41.4808711  45.3795514  31.8250550  41.4655759  44.0812504  32.6035506
  30.9570094  52.5493394  40.6128492  31.6579554  53.1829877  40.7657887
  30.4865209  52.8908126  39.8524132  39.0824490  50.8911344  28.8976399
  39.3584334  50.7767938  29.8070274  38.2128989  50.4928829  28.8588573
  38.9864921  36.9148110  35.9381149  38.0728001  37.1452336  36.1063356
  39.4158023  36.9986554  36.7895181  38.7571380  45.1038002  38.4381043
  38.1042830  45.3513909  37.7833496  39.1351760  44.2902140  38.1043520
  35.7178554  55.1397695  32.5409213  35.9000948  54.3219351  33.0036965
  36.5411540  55.3565387  32.1034103  36.0520719  54.0665880  29.8024262
  36.5808486  53.5558334  29.1894424  36.3148939  53.7508410  30.6669795
  34.8058953  45.8457813  44.9247080  34.1299590  45.7451942  45.5949455
  35.6286587  45.6897026  45.3883077  26.5537812  52.0829749  37.5459595
  27.1391249  51.3373437  37.6787499  26.3562651  52.3933706  38.4296259
  29.4076467  55.1180997  32.5622038  28.7386843  55.6027124  32.0786078
  29.2689337  55.3650217  33.4765416  21.1455467  44.6535349  36.2664038
  21.1839566  44.1198940  37.0601156  20.6395760  44.1270555  35.6475015
  33.5481736  57.1524740  39.1604696  34.1000044  57.3156362  39.9253781
  33.8887929  57.7429178  38.4884721  28.5246229  39.4999890  39.7626581
  28.5887556  40.3614721  39.3503978  28.4613349  38.8873891  39.0298939
  27.9998502  41.5723022  43.4099615  28.6270540  41.1900100  44.0237139
  27.1426420  41.3537224  43.7755307  38.3992610  51.9785998  45.0153350
  38.9432514  52.5915956  44.5208305  37.8179455  52.5365576  45.5320363
  24.7764044  43.3799451  29.3417970  25.0717485  42.4710130  29.2885023
  23.8752080  43.3587191  29.0198972  36.6850123  55.1006716  36.1468378
  36.5601263  54.2996455  35.6379324  37.3429214  55.5952909  35.6582348
  28.3058291  41.4555448  35.3245518  27.5844877  42.0691416  35.1852992
  29.0951547  41.9913213  35.2462164  38.7485032  52.9015736  37.7747928
  37.8015367  52.7821087  37.7026255  39.0967805  52.0138234  37.8574190
  31.1084605  38.7909875  41.5986170  31.6319007  39.0372171  42.3612479
  30.8896938  39.6229909  41.1789307  26.5051886  41.0613549  29.4657295
  26.1764592  40.1810928  29.2832401  26.8591257  41.0061218  30.3533684
  35.7531465  52.6968452  33.9752280  35.6056427  51.7685159  34.1559850
  36.5784958  52.7188543  33.4909356  29.6193709  41.3486519  29.8332773
  29.9589782  41.8772440  29.1111381  30.0665830  41.6866925  30.6091339
  39.3565587  53.5197011  35.0617153  40.2812134  53.3139872  34.9241604
  39.1880890  53.2713412  35.9706495  32.3137150  39.7323570  39.2835841
  31.9733970  38.9331383  39.6856520  31.6076156  40.0325281  38.7112674
  32.9653622  36.8172882  37.7363164  33.7879691  36.3433360  37.6142054
  33.2091685  37.5963366  38.2361850  31.6061856  39.8461141  28.0326065
  32.3270219  40.2242393  27.5289782  30.9827160  40.5650017  28.1361043
  35.7492979  40.5506290  28.9684398  35.9656594  41.4330927  28.6673226
  35.2687046  40.1592503  28.2390040  30.4892201  43.5092003  35.5455142
  30.3436781  43.8232306  36.4379424  30.0117404  44.1276903  34.9926041
  32.3488583  40.4994551  35.5936032  32.3350152  39.6035644  35.2568330
  33.0661012  40.5065214  36.2274318  34.2014714  40.9331891  37.6389159
  33.9432492  41.8548962  37.6373490  33.6699755  40.5362325  38.3289623
  39.1460903  54.0382678  30.4179245  39.3197780  53.4729101  29.6653097
  39.6389794  54.8383573  30.2358735  24.9637863  46.0497347  38.4842803
  24.4191331  46.8257155  38.6163078  25.8417213  46.3968152  38.3261925
  31.7525479  39.3808931  30.8623602  31.8741391  38.4525577  31.0614489
  31.4627522  39.3947617  29.9501917  34.6216670  37.0663841  33.9990322
  34.6438367  37.1303175  33.0442301  35.0384729  36.2268350  34.1930828
  45.0000294  46.8019101  32.0369544  45.4431440  46.0526426  31.6388668
  44.1226804  46.7929237  31.6543276  40.1336075  53.3549442  27.5176143
  40.8286980  53.9756135  27.7363457  40.4759226  52.5044794  27.7928521
  25.7503885  45.1767243  41.3772960  25.0085621  45.3249879  41.9637591
  25.4296629  45.4375509  40.5139710  42.0327499  50.8049148  29.0463474
  42.5578823  51.1436421  28.3212794  41.9449851  49.8696163  28.8626608
  33.6947547  54.7183222  41.1753350  34.0034674  54.4732368  42.0476050
  34.4923029  54.9229860  40.6872220  33.7168159  56.8721131  33.4058727
  33.2773150  56.3797510  34.0991584  34.4676276  56.3294099  33.1650802
  26.1960498  53.0632672  33.4083355  27.0218518  52.7636444  33.0281998
  25.8454550  52.2940295  33.8573144  31.1642031  52.4159140  35.4781028
  30.5422041  51.7529845  35.1783256  31.8346898  52.4420272  34.7954676
  24.3969103  50.9818999  34.3672288  23.5601012  50.5541173  34.1856290
  24.3692749  51.1751442  35.3043080  31.2366559  40.8940928  45.0713535
  31.2854714  41.7703051  44.6891304  31.7789073  40.3518321  44.4985178
  41.7221405  51.4382052  44.3514672  40.9316948  51.4206190  43.8119171
  41.4854759  51.9770345  45.1063708  41.8419280  48.2874518  41.6647400
  41.8917285  48.1224525  42.6062923  41.7333203  47.4201777  41.2745281
  30.7255538  50.9663064  28.9539489  30.8743659  51.6498528  28.3006162
  31.5321982  50.9468154  29.4688945  39.1323042  44.2705446  42.9806707
  40.0332905  44.1311911  42.6890705  39.2071017  44.4359901  43.9204884
  33.4665847  41.6472301  41.8259893  32.5969157  41.9405867  41.5542482
  33.7025328  42.2312746  42.5467157  43.3437476  50.7071460  41.9089422
  43.0522285  51.0701440  42.7452883  42.7309608  49.9938468  41.7302754
  44.5433159  48.2724339  34.4291992  45.3780050  48.7114143  34.5929552
  44.6792288  47.7962992  33.6100238  41.5924665  45.8304074  40.3769480
  42.0678786  46.0231720  39.5688331  40.6690230  45.8863260  40.1312863
  28.4808171  46.9928241  29.9600558  28.2354213  46.0890571  30.1580768
  28.6504086  46.9945392  29.0180036  36.1704881  37.8651918  39.3425314
  36.6886825  38.6012945  39.0171802  35.8160014  38.1715911  40.1772073
  27.7503819  42.7256599  27.4586719  27.0573064  42.8000954  26.8026755
  27.5055571  41.9616943  27.9808236  36.4217475  34.2852200  34.8626210
  36.7019229  33.6175389  35.4886637  37.2068082  34.4781296  34.3500874
  34.2250944  53.4611194  26.4251236  33.6524911  54.0801381  25.9721708
  34.7983738  54.0110556  26.9591158  40.2926334  42.7069834  38.6097785
  41.2443757  42.8067932  38.6310009  40.1229784  41.9148103  39.1195870
  38.3140713  39.7925417  38.7957186  37.7190645  40.0730430  38.1003675
  38.0290410  40.2819318  39.5673927  37.4448204  53.7448344  27.5559819
  38.3778877  53.6793906  27.7592694  37.3571416  54.5804611  27.0974351
  40.0736220  53.0614215  24.5163766  39.9949852  52.7274078  25.4099524
  40.8945887  53.5535983  24.5155239  42.7714411  45.9275954  37.7240085
  42.7390732  44.9891955  37.9099769  43.3815035  46.0059991  36.9905910
  34.6097742  44.7972007  23.7667289  35.5556847  44.6678215  23.8355707
  34.2311987  44.0586669  24.2436717  42.9208900  42.7186997  37.7698368
  42.4047949  41.9345454  37.5828297  43.8048848  42.3905714  37.9344888
  40.5819627  36.4628013  33.7294181  40.3844448  36.1543101  34.6137513
  41.1919332  37.1889652  33.8592111  48.5890961  46.9891961  36.8646122
  49.3194350  46.7277249  37.4253825  47.9797907  46.2520683  36.9048190
  46.6706258  45.1299823  37.4620573  45.9439422  44.9955788  36.8537064
  46.2553545  45.4376652  38.2677291  34.4936435  48.8489753  45.2267946
  35.4139444  49.0268352  45.4207992  34.4586018  47.9045798  45.0747645
  32.7940659  42.7221983  23.7022174  31.8872115  42.4255096  23.7784888
  33.0716640  42.4251801  22.8356460  23.7118600  44.0428347  34.1521221
  23.3921384  43.1893655  33.8595595  23.1652028  44.2576925  34.9079188
  27.4898507  46.7590788  37.8690727  27.7084517  47.6907895  37.8878761
  27.9024281  46.3998762  38.6545531  34.4102725  37.2658873  29.8566415
  33.6003454  36.9205958  30.2321662  35.0987142  36.9566417  30.4454027
  36.3393274  36.3436920  31.4790712  36.8924312  36.7632373  32.1380735
  36.5763360  35.4172668  31.5213668  32.3626373  42.3323993  47.2593476
  32.2623100  43.2818350  47.1905567  32.1447915  42.0042232  46.3869546
  31.5639444  39.5808918  23.8434153  32.4258608  39.9063817  24.1029971
  31.7489788  38.7940414  23.3307219  23.5806860  47.6631258  36.1214342
  22.8870331  47.2485211  35.6084297  24.3279851  47.7051795  35.5247761
  39.7172081  38.4537445  30.9869376  39.1370750  39.1122249  30.6047429
  39.4508013  37.6314790  30.5756794  38.1675647  37.8542503  33.1890697
  38.6675425  37.9659037  32.3805016  38.8111255  37.5503556  33.8291505
  32.2257643  45.7621132  46.0758538  31.7424724  46.5621492  46.2822427
  32.3118582  45.7729077  45.1225982  25.4943602  47.5949512  33.9980357
  25.4714291  47.6937199  33.0462240  25.8044239  48.4414663  34.3197523
  28.1530980  49.6525667  38.1126971  29.1074234  49.6209609  38.0456903
  27.9543504  49.1916291  38.9277197  28.7430362  48.2226783  40.6797769
  29.5623251  48.7170862  40.7032606  29.0167170  47.3058751  40.6515337
  38.4996959  40.6137535  30.0425725  37.6122814  40.8987186  29.8245919
  38.9150948  40.4531299  29.1953002  41.8511495  40.6384056  33.7580064
  42.6271885  41.1280509  34.0304681  41.1259629  41.0642111  34.2151933
  44.2884053  41.3511676  34.8154004  44.8828544  41.1107411  34.1047313
  44.3610637  40.6318806  35.4427541  26.5081209  55.1945286  35.1297169
  26.3735677  54.4345687  34.5635167  26.0913271  55.9186186  34.6625958
  37.6440172  50.3782210  24.1373745  38.3476022  50.5832213  24.7531400
  36.9202821  50.9458972  24.4022828  38.4737982  46.1292071  30.2576015
  38.4173184  46.5860623  29.4183647  39.0266325  45.3682756  30.0798858
  42.2842788  41.9181803  31.0826134  42.0279723  41.5178439  31.9134342
  41.6595656  42.6325597  30.9576273  46.5955126  44.6577876  33.5897426
  46.0354684  44.7271066  34.3628988  45.9898629  44.4818861  32.8696922
  29.6650335  56.0914603  35.3415612  29.5482719  57.0360036  35.2394302
  28.8442781  55.7888165  35.7301411  39.5526869  50.8164739  26.1872205
  40.3872473  50.3845938  26.0049679  39.3911212  50.6446753  27.1149099
  39.2072762  47.3196853  27.5528544  39.1521565  47.1541124  26.6116988
  38.5818817  48.0272885  27.7090734  23.9965277  42.5564917  41.3789966
  24.6424140  42.0463871  41.8677191  23.7882428  43.2933599  41.9533391
  36.5218669  49.6245764  46.8782107  37.3909828  49.7986417  46.5168742
  36.0425420  50.4440181  46.7557836  32.5168887  36.8204962  27.1313862
  32.5047557  37.7646801  27.2882133  33.4092309  36.6375107  26.8373324
  30.6904849  56.7442865  38.5571540  31.5932096  56.7766476  38.8738035
  30.4642219  55.8143316  38.5717876  32.4458451  55.4973852  35.2181619
  31.4954082  55.4975714  35.1045991  32.7490937  54.7506586  34.7017654
  36.3321007  33.4147738  31.3859799  35.5653402  32.8606225  31.5316482
  36.7431712  33.4869607  32.2473951  28.3362768  39.7032534  45.4764980
  29.1994229  39.3469339  45.6868305  27.7628178  39.3646429  46.1640385
  48.1811145  61.3334390  36.2827381  48.8189555  61.2141138  35.5790721
  48.0631987  62.2815234  36.3415334  44.9900851  61.2861818  36.2188906
  44.6519362  61.1702883  35.3309441  45.8590619  60.8852984  36.1989912
  40.8487667  63.1397295  32.2085797  40.2852532  63.0487232  31.4402085
  40.7340062  62.3197199  32.6888290  45.4720634  62.4396670  42.1775112
  45.4609275  62.0449468  41.3055615  45.6341273  61.7062743  42.7708883
  38.3952098  64.6348486  35.0470018  39.1873390  64.2939311  34.6316317
  38.6348749  64.7443461  35.9672171  46.4287225  66.8068263  27.5200262
  45.7775205  67.3922343  27.1334276  47.2231588  67.3374457  27.5795299
  40.3542852  63.8957400  27.9187396  41.1273728  63.3486387  27.7800272
  40.7068251  64.7601649  28.1301858  42.1927895  65.2233782  41.1254296
  41.9017761  66.1279413  41.0100962  42.8284879  65.2650310  41.8398365
  43.1184102  62.6010630  37.7155655  43.7147674  62.3766653  37.0012618
  43.1759073  61.8595376  38.3181103  42.6909130  60.0550066  25.5505846
  42.9434651  59.5331587  24.7889309  41.7533689  59.8916211  25.6532530
  47.7352413  59.0585844  33.3580589  48.5215502  58.6405267  33.0071006
  47.9991117  59.9631936  33.5262238  47.9062490  64.4958694  28.0569246
  47.2708323  64.5693321  28.7690151  47.5759897  65.0852293  27.3788326
  53.1360840  58.9961077  34.2613568  53.8686012  58.4260294  34.4951397
  52.3800196  58.6082678  34.7020074  42.4105419  61.9578172  27.7530221
  42.2941677  61.2823075  28.4211305  42.5207679  61.4710546  26.9362374
  44.7536960  61.4188319  31.4576910  44.3895167  60.8918940  32.1689832
  45.6104076  61.0286788  31.2843396  50.6586261  52.7082651  38.7208177
  50.3269585  53.5778062  38.4969392  50.0631874  52.3918935  39.4002207
  44.3942447  56.4478219  26.4538259  44.5616849  57.3158455  26.8208730
  44.2039616  56.6105500  25.5299548  47.1517780  64.9095197  38.1204089
  46.8518503  65.8120236  38.0119897  46.8068840  64.6427381  38.9725242
  40.6030262  61.3608994  34.1540794  39.6780758  61.2285208  34.3618485
  40.8514675  62.1403214  34.6510736  50.5514924  57.4277738  35.8001527
  49.6431801  57.3593146  35.5060288  50.5002520  57.9049683  36.6283352
  44.3731668  58.9035876  27.4384926  44.2531293  59.3492927  28.2770406
  43.6784256  59.2521194  26.8798464  37.9639073  61.0042268  34.9884583
  38.0931454  61.2576747  35.9023994  37.2836524  61.5969976  34.6689238
  42.1338560  71.6739518  31.0875057  42.0562590  72.6247343  31.1663538
  41.5300203  71.3285390  31.7449983  44.6255790  58.8467383  43.7436424
  43.8489124  59.4061303  43.7339289  45.2646353  59.3324166  44.2651294
  52.4176570  55.6294176  37.5779401  51.7750951  55.9226709  36.9319195
  51.9131499  55.5147096  38.3832597  50.0716734  59.3757349  28.2665260
  50.9834590  59.6084736  28.0912957  49.5626381  59.9594393  27.7040338
  42.8802162  61.6552837  43.3054391  43.6216846  62.1937881  43.0289214
  42.1739147  62.2819125  43.4625943  48.3557502  63.7981977  41.9026552
  48.7640858  63.3564388  41.1581185  47.6334763  63.2234605  42.1560745
  44.7088572  58.7354584  39.2760109  45.5549767  59.1593997  39.4194758
  44.6487209  58.0788208  39.9698672  48.6786316  64.3583168  35.6578841
  48.0495179  64.5228882  34.9554909  48.2911978  64.7724777  36.4289805
  52.5575548  65.2937606  33.0123205  51.8726586  65.6736507  32.4620238
  52.6419397  65.9032932  33.7455153  47.8588017  56.3958952  40.9341283
  47.6148949  57.1501013  40.3975559  48.1347947  56.7744300  41.7688530
  49.8126480  62.9397565  39.6118549  50.0243375  63.5829324  38.9352930
  49.7656228  62.1059881  39.1440479  47.4152709  55.5515385  36.5155121
  46.5537188  55.8496639  36.8071858  47.4415143  55.7685784  35.5836153
  44.2314278  64.0957576  32.9228926  44.6952624  64.3745279  32.1333549
  43.9671076  63.1941020  32.7402017  41.1238359  63.6429057  35.8608690
  41.6939716  64.0716326  35.2226174  41.7146471  63.3611642  36.5592875
  43.1683164  60.2180728  29.7318491  43.8707208  60.6701772  30.1992418
  42.8363793  59.5764547  30.3598385  41.6163526  58.8092485  44.1069701
  40.9862186  59.4908766  44.3405098  41.5099614  58.6975566  43.1622839
  36.9108498  58.4764281  35.0335625  36.1207552  58.7321809  34.5575736
  37.4019745  59.2912619  35.1387666  50.9272308  65.8169520  37.7840906
  51.7489751  65.4149707  37.5023588  50.9234711  65.7137754  38.7357022
  38.8623244  58.8408860  31.9919102  38.0654407  58.9527554  32.5102597
  38.6348836  59.1795512  31.1259992  44.6928911  65.3653563  39.9401616
  44.7573344  65.8273971  40.7759788  43.9839835  64.7350928  40.0683926
  35.1946201  58.7294771  37.4650616  35.4454240  59.6141781  37.7308192
  35.7305750  58.5499373  36.6925708  59.0178301  62.1608268  34.1325877
  58.2642009  61.5915667  33.9769882  59.1525842  62.1270933  35.0796512
  44.4076929  67.0321671  29.8080597  44.2722604  67.8773206  30.2365445
  44.9486741  67.2340948  29.0446531  40.8944268  53.1113251  46.4694952
  40.5011214  52.5579449  47.1442596  41.7110409  53.4223829  46.8601469
  37.8606326  64.5497109  30.3808522  38.3730847  65.3440359  30.5314086
  38.5129039  63.8523399  30.3142123  39.6701211  67.6662865  32.4631275
  39.8467839  68.5880830  32.2752259  40.4658044  67.3521284  32.8925655
  43.8112229  54.5271130  44.0615208  44.5521943  55.1278283  43.9819671
  44.0430152  53.7848768  43.5033251  38.9553567  59.7127497  42.3393438
  38.8407083  58.8112754  42.6400537  38.0998085  59.9591194  41.9878255
  46.0345405  67.6545237  43.9380939  45.5909259  66.8681616  43.6201843
  46.6962619  67.8424388  43.2724830  40.7932526  69.1841039  38.4641617
  41.3439951  69.0558102  37.6918611  39.9544002  69.4835928  38.1136510
  48.1326643  67.9348037  41.9662340  48.1145119  68.7556918  41.4742609
  49.0546563  67.8102112  42.1912481  44.5899697  65.4492167  42.8085848
  45.1228034  64.6880455  42.5785156  44.0613778  65.1565819  43.5510003
  47.7569392  50.5552233  38.3379490  47.4133662  51.4453874  38.2618601
  48.1248355  50.3653890  37.4749075  35.8255243  62.8785763  31.1568092
  36.6630465  63.2882771  30.9401800  36.0033511  61.9385205  31.1268286
  47.7219675  60.5460844  26.8451925  47.2066299  61.3165448  27.0840313
  47.4496984  59.8725980  27.4684987  45.3066786  55.3910545  31.9037164
  44.4508382  55.0017395  31.7242802  45.7193738  55.4702505  31.0436949
  46.8365933  52.9256888  36.3028723  46.3330728  52.8887023  35.4896529
  47.1296540  53.8349631  36.3625380  43.0808819  53.0095618  35.3094905
  43.9461815  52.8138426  34.9500795  43.1486328  52.7805969  36.2364262
  52.6953949  63.2993198  28.7805099  51.9183392  62.9604358  28.3360261
  53.3745430  63.3045822  28.1060064  47.5105978  58.4187936  28.6711706
  47.2056114  58.7334085  29.5221850  48.4636420  58.4969356  28.7139039
  45.9552410  64.5778159  30.3204660  45.4273772  63.8430919  30.0077898
  45.4539913  65.3552836  30.0744629  50.9345256  62.7727180  35.4371707
  50.2768931  63.4626441  35.5251835  51.7385655  63.1623612  35.7805693
  40.6871138  55.2397825  32.6811272  41.2614890  55.0173007  31.9484465
  41.2742120  55.3086520  33.4339873  49.7450715  61.1271552  33.4875648
  50.2582597  61.7601544  33.9897358  50.3951939  60.5272748  33.1219009
  41.0140725  57.2702286  26.7007157  40.1778037  57.6076973  27.0216432
  40.8745494  57.1351266  25.7634294  42.9893805  52.1139074  31.4086341
  42.3358218  51.7988092  30.7842956  42.9474280  51.4914815  32.1346164
  44.1005010  62.3958369  23.3239633  43.1932072  62.1647623  23.5230782
  44.5976042  61.5995989  23.5113615  47.0073089  71.1055877  26.2436320
  46.3334788  71.4087573  26.8521277  47.3938911  71.9084957  25.8941777
  46.2231546  58.6021008  35.7333989  45.3054107  58.8235955  35.5755677
  46.6391689  58.6767318  34.8745696  47.0066594  60.0012424  30.8636669
  47.7538412  60.5133821  30.5543791  47.2758183  59.6796476  31.7241063
  45.2793244  62.4970964  27.8463624  44.3704463  62.2129997  27.9436093
  45.3088328  62.9170043  26.9866930  50.5112511  66.1077554  31.6154791
  50.0574838  65.2668464  31.6719982  49.8806478  66.7438952  31.9529571
  49.4545431  57.0369540  32.8455459  48.7168187  56.5246926  33.1765701
  49.7072204  56.5969921  32.0338735  48.9545450  67.9454050  32.5504609
  49.2468425  68.5059108  31.8316975  49.4644071  68.2382611  33.3057768
  49.5557058  49.8145792  33.4397228  49.8615935  48.9543155  33.1523143
  50.2809663  50.4063412  33.2396222  35.8481414  60.2176478  31.8278826
  35.6505814  59.6245839  31.1029892  35.2928078  59.9128689  32.5454765
  43.8278138  60.1099585  33.9473419  43.8826748  59.1573421  33.8715896
  43.0169340  60.2659024  34.4314717  44.9769332  64.0379708  25.1851702
  44.5388761  63.3215567  24.7257339  45.7179772  64.2655823  24.6236794
  41.7670498  58.7276645  31.7063798  40.9538363  59.0270815  32.1128990
  42.2629492  58.3332333  32.4238280  43.9179076  68.7234402  33.6398062
  43.8755254  68.9495248  32.7106594  44.8341774  68.4897776  33.7883864
  47.3644709  59.1918469  40.5378692  47.7194097  59.4189942  41.3973157
  48.0116841  59.5236846  39.9155947  53.0942446  62.3136905  31.2428021
  52.9560345  62.5038501  30.3149210  52.7378665  63.0756288  31.6996072
  41.2584572  56.2995000  37.3225033  41.8983952  56.1583759  36.6247996
  40.4262103  56.0129514  36.9463635  53.1211826  64.3813432  36.2539292
  53.5548333  64.2888721  37.1022346  53.8343407  64.3570932  35.6159308
  42.0344876  65.5997431  33.4360025  42.8285475  65.1047751  33.2342600
  41.3236569  65.0715294  33.0727731  46.8539721  67.9815526  37.7872393
  46.9076743  68.5506462  38.5550109  45.9854502  68.1517411  37.4226430
  38.3427640  59.7440512  29.5119778  37.4125228  59.6824968  29.7289740
  38.4385112  59.2216465  28.7156419  38.2613189  56.2695325  32.0998020
  38.5220006  57.1840658  31.9907180  39.0830361  55.8019768  32.2494632
  39.7338114  57.6833082  39.2696844  40.4061168  57.4750444  38.6209493
  38.9067901  57.4855168  38.8302076  53.9827375  64.4237133  38.7872178
  54.1763266  65.3282943  39.0331453  53.8827994  63.9644552  39.6210763
  45.6363686  54.3095023  41.2862505  44.9891601  55.0084973  41.1926981
  46.4064702  54.7431167  41.6538753  49.0442484  64.5743875  44.3613058
  48.8927991  64.3454427  43.4443142  49.0347164  65.5314477  44.3744403
  45.8127821  62.1475788  39.3459325  46.7419881  62.2986948  39.1728292
  45.3918851  62.2359809  38.4907971  44.6116152  66.1726453  37.1157862
  44.4727238  65.8045237  37.9883800  43.8230749  66.6874092  36.9441820
  45.2064304  71.2735549  28.4583399  45.3816060  70.8023592  29.2729022
  44.5197092  71.9001315  28.6864660  46.1621367  65.5508055  34.5046700
  45.8271200  65.5108825  35.4004350  45.6625313  64.8852771  34.0317110
  40.1365611  60.9575685  40.0299281  39.9985409  60.2255924  40.6310820
  41.0470535  60.8684585  39.7483469  49.0980559  62.8964090  24.7783760
  48.4809730  62.1710918  24.6816812  48.6297048  63.6573450  24.4350834
  42.7647912  60.6695645  39.5182961  43.4747531  60.0288837  39.4769579
  42.7217220  60.9208539  40.4409142  50.7534691  67.6062998  42.4389540
  50.6947237  66.9222218  41.7720123  51.1554209  68.3481988  41.9870166
  41.4776846  57.6560863  41.3378600  40.9414203  57.2051601  41.9900197
  40.8893555  57.7906771  40.5949065  39.7725390  74.4224912  35.2323259
  40.0121988  75.0543436  35.9102278  38.9294586  74.0712952  35.5188618
  40.8879105  57.1149514  23.9005064  40.0108571  56.9938315  23.5367311
  41.3636858  56.3235592  23.6483953  50.7552098  65.5702582  40.6703520
  49.8678877  65.2328504  40.7929919  51.3250649  64.8385613  40.9072285
  32.4081245  61.9026674  33.9946571  33.0952285  61.5888404  33.4067586
  32.2529374  62.8068038  33.7213823  37.2115967  56.7916870  38.4231595
  37.1274156  56.1842540  37.6882005  36.3898674  57.2825889  38.4241091
  44.2853251  70.2304034  37.6364763  44.2123423  71.0359006  38.1484068
  43.8430645  70.4296000  36.8112784  44.0743031  69.4675804  31.1467585
  43.2910553  70.0097484  31.2405809  44.7735776  69.9849784  31.5461826
  47.3839681  55.2770434  33.7901790  47.8808381  54.5240396  33.4702860
  46.6126663  55.3134750  33.2244999  55.2369439  60.9810799  35.4320081
  55.2259315  61.8635515  35.0614015  54.3686818  60.6282350  35.2374618
  46.7451935  70.1290868  39.7922922  47.4579907  70.7638333  39.7198823
  46.2541964  70.2254734  38.9762923  48.4669462  64.0342121  31.3640213
  47.5325741  64.1543583  31.1944918  48.6446130  63.1314588  31.1000223
  43.9674650  57.4187817  33.5173475  43.5972437  56.8658857  34.2054380
  44.4633742  56.8145950  32.9648475  51.8542013  59.8759440  31.8990247
  52.3202465  60.7087432  31.8250550  52.3049514  59.4104422  32.6035506
  41.7963849  67.8785312  40.6128492  42.4973308  68.5121795  40.7657887
  41.3258963  68.2200043  39.8524132  49.9218244  66.2203262  28.8976399
  50.1978088  66.1059856  29.8070274  49.0522743  65.8220746  28.8588573
  49.8258676  52.2440027  35.9381149  48.9121756  52.4744254  36.1063356
  50.2551777  52.3278471  36.7895181  49.5965134  60.4329919  38.4381043
  48.9436585  60.6805827  37.7833496  49.9745514  59.6194057  38.1043520
  46.5572308  70.4689612  32.5409213  46.7394703  69.6511268  33.0036965
  47.3805294  70.6857305  32.1034103  46.8914474  69.3957798  29.8024262
  47.4202240  68.8850252  29.1894424  47.1542693  69.0800328  30.6669795
  45.6452707  61.1749730  44.9247080  44.9693345  61.0743860  45.5949455
  46.4680341  61.0188944  45.3883077  37.3931567  67.4121667  37.5459595
  37.9785003  66.6665355  37.6787499  37.1956405  67.7225624  38.4296259
  40.2470222  70.4472914  32.5622038  39.5780597  70.9319042  32.0786078
  40.1083091  70.6942135  33.4765416  31.9849221  59.9827267  36.2664038
  32.0233321  59.4490858  37.0601156  31.4789514  59.4562473  35.6475015
  44.3875490  72.4816658  39.1604696  44.9393798  72.6448279  39.9253781
  44.7281684  73.0721096  38.4884721  39.3639984  54.8291808  39.7626581
  39.4281310  55.6906638  39.3503978  39.3007104  54.2165809  39.0298939
  38.8392256  56.9014940  43.4099615  39.4664295  56.5192017  44.0237139
  37.9820175  56.6829142  43.7755307  49.2386365  67.3077915  45.0153350
  49.7826269  67.9207873  44.5208305  48.6573210  67.8657494  45.5320363
  35.6157799  58.7091369  29.3417970  35.9111240  57.8002048  29.2885023
  34.7145835  58.6879109  29.0198972  47.5243878  70.4298633  36.1468378
  47.3995017  69.6288373  35.6379324  48.1822969  70.9244827  35.6582348
  39.1452046  56.7847366  35.3245518  38.4238632  57.3983333  35.1852992
  39.9345302  57.3205131  35.2462164  49.5878786  68.2307653  37.7747928
  48.6409122  68.1113005  37.7026255  49.9361559  67.3430151  37.8574190
  41.9478359  54.1201792  41.5986170  42.4712761  54.3664089  42.3612479
  41.7290693  54.9521827  41.1789307  37.3445640  56.3905467  29.4657295
  37.0158347  55.5102846  29.2832401  37.6985011  56.3353136  30.3533684
  46.5925219  68.0260370  33.9752280  46.4450182  67.0977077  34.1559850
  47.4178713  68.0480460  33.4909356  40.4587464  56.6778437  29.8332773
  40.7983536  57.2064358  29.1111381  40.9059584  57.0158843  30.6091339
  50.1959341  68.8488928  35.0617153  51.1205889  68.6431790  34.9241604
  50.0274645  68.6005329  35.9706495  43.1530904  55.0615487  39.2835841
  42.8127725  54.2623300  39.6856520  42.4469911  55.3617198  38.7112674
  43.8047376  52.1464800  37.7363164  44.6273446  51.6725278  37.6142054
  44.0485440  52.9255284  38.2361850  42.4455611  55.1753058  28.0326065
  43.1663973  55.5534311  27.5289782  41.8220915  55.8941935  28.1361043
  46.5886734  55.8798207  28.9684398  46.8050348  56.7622845  28.6673226
  46.1080801  55.4884421  28.2390040  41.3285955  58.8383920  35.5455142
  41.1830536  59.1524223  36.4379424  40.8511159  59.4568821  34.9926041
  43.1882338  55.8286468  35.5936032  43.1743907  54.9327562  35.2568330
  43.9054766  55.8357132  36.2274318  45.0408469  56.2623809  37.6389159
  44.7826246  57.1840879  37.6373490  44.5093509  55.8654243  38.3289623
  49.9854657  69.3674596  30.4179245  50.1591535  68.8021018  29.6653097
  50.4783549  70.1675491  30.2358735  35.8031617  61.3789265  38.4842803
  35.2585085  62.1549073  38.6163078  36.6810967  61.7260069  38.3261925
  42.5919234  54.7100849  30.8623602  42.7135145  53.7817495  31.0614489
  42.3021276  54.7239535  29.9501917  45.4610424  52.3955759  33.9990322
  45.4832121  52.4595092  33.0442301  45.8778483  51.5560268  34.1930828
  55.8394049  62.1311019  32.0369544  56.2825195  61.3818344  31.6388668
  54.9620559  62.1221155  31.6543276  50.9729830  68.6841360  27.5176143
  51.6680735  69.3048053  27.7363457  51.3152980  67.8336711  27.7928521
  36.5897639  60.5059161  41.3772960  35.8479375  60.6541796  41.9637591
  36.2690383  60.7667427  40.5139710  52.8721253  66.1341066  29.0463474
  53.3972577  66.4728338  28.3212794  52.7843606  65.1988081  28.8626608
  44.5341302  70.0475139  41.1753350  44.8428428  69.8024286  42.0476050
  45.3316784  70.2521778  40.6872220  44.5561914  72.2013049  33.4058727
  44.1166904  71.7089428  34.0991584  45.3070031  71.6586017  33.1650802
  37.0354253  68.3924590  33.4083355  37.8612273  68.0928362  33.0281998
  36.6848305  67.6232212  33.8573144  42.0035786  67.7451058  35.4781028
  41.3815795  67.0821763  35.1783256  42.6740653  67.7712190  34.7954676
  35.2362858  66.3110916  34.3672288  34.3994766  65.8833091  34.1856290
  35.2086503  66.5043360  35.3043080  42.0760313  56.2232846  45.0713535
  42.1248469  57.0994969  44.6891304  42.6182828  55.6810239  44.4985178
  52.5615159  66.7673969  44.3514672  51.7710703  66.7498108  43.8119171
  52.3248514  67.3062263  45.1063708  52.6813034  63.6166436  41.6647400
  52.7311039  63.4516443  42.6062923  52.5726957  62.7493695  41.2745281
  41.5649293  66.2954981  28.9539489  41.7137413  66.9790446  28.3006162
  42.3715736  66.2760071  29.4688945  49.9716797  59.5997364  42.9806707
  50.8726659  59.4603829  42.6890705  50.0464771  59.7651819  43.9204884
  44.3059602  56.9764218  41.8259893  43.4362911  57.2697785  41.5542482
  44.5419082  57.5604663  42.5467157  54.1831231  66.0363377  41.9089422
  53.8916039  66.3993358  42.7452883  53.5703362  65.3230385  41.7302754
  55.3826913  63.6016257  34.4291992  56.2173805  64.0406061  34.5929552
  55.5186042  63.1254910  33.6100238  52.4318419  61.1595992  40.3769480
  52.9072541  61.3523638  39.5688331  51.5083985  61.2155178  40.1312863
  39.3201926  62.3220159  29.9600558  39.0747968  61.4182489  30.1580768
  39.4897840  62.3237309  29.0180036  47.0098636  53.1943835  39.3425314
  47.5280580  53.9304862  39.0171802  46.6553768  53.5007829  40.1772073
  38.5897573  58.0548517  27.4586719  37.8966818  58.1292872  26.8026755
  38.3449325  57.2908860  27.9808236  47.2611230  49.6144118  34.8626210
  47.5412984  48.9467307  35.4886637  48.0461837  49.8073214  34.3500874
  45.0644698  68.7903112  26.4251236  44.4918665  69.4093299  25.9721708
  45.6377492  69.3402473  26.9591158  51.1320088  58.0361752  38.6097785
  52.0837511  58.1359850  38.6310009  50.9623539  57.2440020  39.1195870
  49.1534468  55.1217335  38.7957186  48.5584400  55.4022348  38.1003675
  48.8684164  55.6111236  39.5673927  48.2841958  69.0740262  27.5559819
  49.2172631  69.0085824  27.7592694  48.1965171  69.9096529  27.0974351
  50.9129975  68.3906132  24.5163766  50.8343606  68.0565996  25.4099524
  51.7339642  68.8827900  24.5155239  53.6108166  61.2567872  37.7240085
  53.5784486  60.3183872  37.9099769  54.2208790  61.3351908  36.9905910
  45.4491497  60.1263925  23.7667289  46.3950602  59.9970133  23.8355707
  45.0705742  59.3878586  24.2436717  53.7602654  58.0478915  37.7698368
  53.2441703  57.2637372  37.5828297  54.6442603  57.7197632  37.9344888
  51.4213381  51.7919931  33.7294181  51.2238203  51.4835019  34.6137513
  52.0313087  52.5181570  33.8592111  59.4284716  62.3183878  36.8646122
  60.1588104  62.0569167  37.4253825  58.8191661  61.5812600  36.9048190
  57.5100013  60.4591741  37.4620573  56.7833177  60.3247706  36.8537064
  57.0947300  60.7668570  38.2677291  45.3330189  64.1781671  45.2267946
  46.2533199  64.3560270  45.4207992  45.2979772  63.2337716  45.0747645
  43.6334414  58.0513901  23.7022174  42.7265869  57.7547014  23.7784888
  43.9110395  57.7543719  22.8356460  34.5512354  59.3720264  34.1521221
  34.2315139  58.5185573  33.8595595  34.0045783  59.5868843  34.9079188
  38.3292262  62.0882705  37.8690727  38.5478272  63.0199813  37.8878761
  38.7418036  61.7290680  38.6545531  45.2496480  52.5950791  29.8566415
  44.4397208  52.2497876  30.2321662  45.9380897  52.2858334  30.4454027
  47.1787028  51.6728837  31.4790712  47.7318067  52.0924291  32.1380735
  47.4157114  50.7464586  31.5213668  43.2020127  57.6615911  47.2593476
  43.1016854  58.6110268  47.1905567  42.9841669  57.3334150  46.3869546
  42.4033199  54.9100836  23.8434153  43.2652363  55.2355734  24.1029971
  42.5883543  54.1232332  23.3307219  34.4200614  62.9923176  36.1214342
  33.7264086  62.5777129  35.6084297  35.1673605  63.0343712  35.5247761
  50.5565835  53.7829363  30.9869376  49.9764504  54.4414167  30.6047429
  50.2901768  52.9606707  30.5756794  49.0069401  53.1834420  33.1890697
  49.5069180  53.2950955  32.3805016  49.6505009  52.8795473  33.8291505
  43.0651397  61.0913050  46.0758538  42.5818479  61.8913410  46.2822427
  43.1512336  61.1020995  45.1225982  36.3337357  62.9241430  33.9980357
  36.3108045  63.0229117  33.0462240  36.6437993  63.7706580  34.3197523
  38.9924735  64.9817585  38.1126971  39.9467988  64.9501527  38.0456903
  38.7937258  64.5208208  38.9277197  39.5824117  63.5518701  40.6797769
  40.4017006  64.0462779  40.7032606  39.8560925  62.6350669  40.6515337
  49.3390713  55.9429453  30.0425725  48.4516568  56.2279104  29.8245919
  49.7544702  55.7823216  29.1953002  52.6905249  55.9675974  33.7580064
  53.4665639  56.4572426  34.0304681  51.9653383  56.3934028  34.2151933
  55.1277808  56.6803593  34.8154004  55.7222299  56.4399329  34.1047313
  55.2004392  55.9610724  35.4427541  37.3474964  70.5237204  35.1297169
  37.2129431  69.7637605  34.5635167  36.9307026  71.2478104  34.6625958
  48.4833927  65.7074128  24.1373745  49.1869777  65.9124130  24.7531400
  47.7596575  66.2750890  24.4022828  49.3131737  61.4583989  30.2576015
  49.2566938  61.9152540  29.4183647  49.8660079  60.6974674  30.0798858
  53.1236543  57.2473721  31.0826134  52.8673477  56.8470356  31.9134342
  52.4989411  57.9617515  30.9576273  57.4348881  59.9869794  33.5897426
  56.8748439  60.0562983  34.3628988  56.8292384  59.8110779  32.8696922
  40.5044089  71.4206521  35.3415612  40.3876474  72.3651954  35.2394302
  39.6836536  71.1180083  35.7301411  50.3920624  66.1456657  26.1872205
  51.2266228  65.7137855  26.0049679  50.2304967  65.9738671  27.1149099
  50.0466516  62.6488770  27.5528544  49.9915320  62.4833042  26.6116988
  49.4212571  63.3564803  27.7090734  34.8359031  57.8856835  41.3789966
  35.4817895  57.3755789  41.8677191  34.6276182  58.6225516  41.9533391
  47.3612423  64.9537682  46.8782107  48.2303583  65.1278334  46.5168742
  46.8819175  65.7732099  46.7557836  43.3562642  52.1496879  27.1313862
  43.3441311  53.0938719  27.2882133  44.2486063  51.9667025  26.8373324
  41.5298604  72.0734783  38.5571540  42.4325850  72.1058393  38.8738035
  41.3035974  71.1435234  38.5717876  43.2852206  70.8265770  35.2181619
  42.3347837  70.8267631  35.1045991  43.5884692  70.0798504  34.7017654
  47.1714761  48.7439656  31.3859799  46.4047157  48.1898143  31.5316482
  47.5825466  48.8161525  32.2473951  39.1756522  55.0324452  45.4764980
  40.0387984  54.6761256  45.6868305  38.6021933  54.6938346  46.1640385
  59.0204899  76.6626308  36.2827381  59.6583309  76.5433055  35.5790721
  58.9025742  77.6107152  36.3415334  55.8294605  76.6153736  36.2188906
  55.4913117  76.4994801  35.3309441  56.6984374  76.2144901  36.1989912
  51.6881421  78.4689213  32.2085797  51.1246286  78.3779149  31.4402085
  51.5733816  77.6489117  32.6888290  56.3114388  77.7688588  42.1775112
  56.3003029  77.3741386  41.3055615  56.4735028  77.0354660  42.7708883
  49.2345853  79.9640404  35.0470018  50.0267145  79.6231229  34.6316317
  49.4742503  80.0735379  35.9672171  57.2680980  82.1360180  27.5200262
  56.6168960  82.7214261  27.1334276  58.0625343  82.6666375  27.5795299
  51.1936607  79.2249317  27.9187396  51.9667483  78.6778304  27.7800272
  51.5462006  80.0893567  28.1301858  53.0321649  80.5525700  41.1254296
  52.7411515  81.4571330  41.0100962  53.6678634  80.5942227  41.8398365
  53.9577856  77.9302548  37.7155655  54.5541429  77.7058571  37.0012618
  54.0152828  77.1887294  38.3181103  53.5302885  75.3841983  25.5505846
  53.7828405  74.8623505  24.7889309  52.5927444  75.2208129  25.6532530
  58.5746168  74.3877762  33.3580589  59.3609257  73.9697185  33.0071006
  58.8384872  75.2923854  33.5262238  58.7456245  79.8250612  28.0569246
  58.1102078  79.8985239  28.7690151  58.4153651  80.4144211  27.3788326
  63.9754595  74.3252995  34.2613568  64.7079767  73.7552212  34.4951397
  63.2193950  73.9374595  34.7020074  53.2499173  77.2870089  27.7530221
  53.1335432  76.6114993  28.4211305  53.3601433  76.8002463  26.9362374
  55.5930714  76.7480237  31.4576910  55.2288922  76.2210858  32.1689832
  56.4497830  76.3578706  31.2843396  61.4980015  68.0374569  38.7208177
  61.1663340  68.9069980  38.4969392  60.9025628  67.7210853  39.4002207
  55.2336201  71.7770136  26.4538259  55.4010604  72.6450373  26.8208730
  55.0433370  71.9397418  25.5299548  57.9911535  80.2387115  38.1204089
  57.6912258  81.1412154  38.0119897  57.6462594  79.9719298  38.9725242
  51.4424016  76.6900912  34.1540794  50.5174513  76.5577126  34.3618485
  51.6908429  77.4695131  34.6510736  61.3908678  72.7569655  35.8001527
  60.4825556  72.6885064  35.5060288  61.3396274  73.2341600  36.6283352
  55.2125422  74.2327794  27.4384926  55.0925047  74.6784845  28.2770406
  54.5178011  74.5813111  26.8798464  48.8032827  76.3334186  34.9884583
  48.9325208  76.5868664  35.9023994  48.1230278  76.9261894  34.6689238
  52.9732314  87.0031435  31.0875057  52.8956344  87.9539261  31.1663538
  52.3693958  86.6577308  31.7449983  55.4649544  74.1759301  43.7436424
  54.6882878  74.7353221  43.7339289  56.1040107  74.6616084  44.2651294
  63.2570325  70.9586094  37.5779401  62.6144705  71.2518627  36.9319195
  62.7525253  70.8439014  38.3832597  60.9110488  74.7049267  28.2665260
  61.8228345  74.9376654  28.0912957  60.4020135  75.2886311  27.7040338
  53.7195916  76.9844754  43.3054391  54.4610601  77.5229798  43.0289214
  53.0132902  77.6111043  43.4625943  59.1951256  79.1273895  41.9026552
  59.6034612  78.6856305  41.1581185  58.4728518  78.5526522  42.1560745
  55.5482326  74.0646502  39.2760109  56.3943521  74.4885915  39.4194758
  55.4880964  73.4080126  39.9698672  59.5180071  79.6875085  35.6578841
  58.8888933  79.8520799  34.9554909  59.1305733  80.1016695  36.4289805
  63.3969303  80.6229523  33.0123205  62.7120341  81.0028425  32.4620238
  63.4813152  81.2324850  33.7455153  58.6981771  71.7250870  40.9341283
  58.4542703  72.4792930  40.3975559  58.9741702  72.1036217  41.7688530
  60.6520234  78.2689482  39.6118549  60.8637129  78.9121242  38.9352930
  60.6049982  77.4351799  39.1440479  58.2546463  70.8807303  36.5155121
  57.3930942  71.1788556  36.8071858  58.2808898  71.0977702  35.5836153
  55.0708033  79.4249493  32.9228926  55.5346378  79.7037196  32.1333549
  54.8064831  78.5232938  32.7402017  51.9632114  78.9720975  35.8608690
  52.5333471  79.4008243  35.2226174  52.5540226  78.6903560  36.5592875
  54.0076919  75.5472646  29.7318491  54.7100962  75.9993689  30.1992418
  53.6757547  74.9056465  30.3598385  52.4557280  74.1384402  44.1069701
  51.8255941  74.8200683  44.3405098  52.3493368  74.0267484  43.1622839
  47.7502253  73.8056198  35.0335625  46.9601307  74.0613727  34.5575736
  48.2413500  74.6204536  35.1387666  61.7666062  81.1461438  37.7840906
  62.5883506  80.7441625  37.5023588  61.7628465  81.0429672  38.7357022
  49.7016998  74.1700778  31.9919102  48.9048161  74.2819472  32.5102597
  49.4742590  74.5087430  31.1259992  55.5322666  80.6945481  39.9401616
  55.5967098  81.1565888  40.7759788  54.8233589  80.0642846  40.0683926
  46.0339956  74.0586689  37.4650616  46.2847994  74.9433699  37.7308192
  46.5699504  73.8791290  36.6925708  69.8572055  77.4900186  34.1325877
  69.1035764  76.9207584  33.9769882  69.9919596  77.4562851  35.0796512
  55.2470683  82.3613588  29.8080597  55.1116358  83.2065124  30.2365445
  55.7880496  82.5632866  29.0446531  51.7338023  68.4405168  46.4694952
  51.3404968  67.8871367  47.1442596  52.5504163  68.7515747  46.8601469
  48.7000081  79.8789026  30.3808522  49.2124601  80.6732277  30.5314086
  49.3522793  79.1815317  30.3142123  50.5094965  82.9954783  32.4631275
  50.6861594  83.9172747  32.2752259  51.3051799  82.6813202  32.8925655
  54.6505984  69.8563047  44.0615208  55.3915697  70.4570201  43.9819671
  54.8823907  69.1140685  43.5033251  49.7947322  75.0419415  42.3393438
  49.6800837  74.1404672  42.6400537  48.9391840  75.2883111  41.9878255
  56.8739160  82.9837155  43.9380939  56.4303014  82.1973534  43.6201843
  57.5356373  83.1716305  43.2724830  51.6326281  84.5132957  38.4641617
  52.1833706  84.3850020  37.6918611  50.7937757  84.8127846  38.1136510
  58.9720398  83.2639955  41.9662340  58.9538873  84.0848836  41.4742609
  59.8940318  83.1394030  42.1912481  55.4293452  80.7784084  42.8085848
  55.9621789  80.0172373  42.5785156  54.9007533  80.4857736  43.5510003
  58.5963147  65.8844150  38.3379490  58.2527416  66.7745792  38.2618601
  58.9642109  65.6945808  37.4749075  46.6648997  78.2077681  31.1568092
  47.5024219  78.6174689  30.9401800  46.8427265  77.2677123  31.1268286
  58.5613430  75.8752761  26.8451925  58.0460053  76.6457366  27.0840313
  58.2890738  75.2017898  27.4684987  56.1460541  70.7202462  31.9037164
  55.2902137  70.3309313  31.7242802  56.5587492  70.7994423  31.0436949
  57.6759687  68.2548805  36.3028723  57.1724483  68.2178941  35.4896529
  57.9690294  69.1641548  36.3625380  53.9202573  68.3387535  35.3094905
  54.7855570  68.1430344  34.9500795  53.9880082  68.1097887  36.2364262
  63.5347704  78.6285116  28.7805099  62.7577146  78.2896276  28.3360261
  64.2139185  78.6337739  28.1060064  58.3499733  73.7479854  28.6711706
  58.0449868  74.0626003  29.5221850  59.3030175  73.8261273  28.7139039
  56.7946165  79.9070077  30.3204660  56.2667526  79.1722836  30.0077898
  56.2933667  80.6844753  30.0744629  61.7739011  78.1019097  35.4371707
  61.1162685  78.7918359  35.5251835  62.5779410  78.4915529  35.7805693
  51.5264892  70.5689743  32.6811272  52.1008644  70.3464925  31.9484465
  52.1135875  70.6378438  33.4339873  60.5844469  76.4563470  33.4875648
  61.0976351  77.0893462  33.9897358  61.2345693  75.8564666  33.1219009
  51.8534479  72.5994204  26.7007157  51.0171792  72.9368891  27.0216432
  51.7139249  72.4643184  25.7634294  53.8287560  67.4430992  31.4086341
  53.1751972  67.1280009  30.7842956  53.7868034  66.8206732  32.1346164
  54.9398765  77.7250287  23.3239633  54.0325826  77.4939541  23.5230782
  55.4369797  76.9287906  23.5113615  57.8466844  86.4347794  26.2436320
  57.1728542  86.7379491  26.8521277  58.2332666  87.2376875  25.8941777
  57.0625300  73.9312926  35.7333989  56.1447862  74.1527873  35.5755677
  57.4785444  74.0059236  34.8745696  57.8460348  75.3304341  30.8636669
  58.5932167  75.8425738  30.5543791  58.1151938  75.0088394  31.7241063
  56.1186998  77.8262882  27.8463624  55.2098217  77.5421915  27.9436093
  56.1482082  78.2461961  26.9866930  61.3506266  81.4369471  31.6154791
  60.8968593  80.5960381  31.6719982  60.7200232  82.0730870  31.9529571
  60.2939185  72.3661458  32.8455459  59.5561942  71.8538844  33.1765701
  60.5465959  71.9261839  32.0338735  59.7939205  83.2745968  32.5504609
  60.0862179  83.8351025  31.8316975  60.3037825  83.5674529  33.3057768
  60.3950812  65.1437710  33.4397228  60.7009689  64.2835073  33.1523143
  61.1203417  65.7355330  33.2396222  46.6875169  75.5468396  31.8278826
  46.4899568  74.9537757  31.1029892  46.1321833  75.2420606  32.5454765
  54.6671892  75.4391503  33.9473419  54.7220502  74.4865339  33.8715896
  53.8563094  75.5950942  34.4314717  55.8163086  79.3671626  25.1851702
  55.3782516  78.6507485  24.7257339  56.5573527  79.5947740  24.6236794
  52.6064252  74.0568562  31.7063798  51.7932118  74.3562733  32.1128990
  53.1023246  73.6624251  32.4238280  54.7572830  84.0526319  33.6398062
  54.7149009  84.2787166  32.7106594  55.6735529  83.8189694  33.7883864
  58.2038464  74.5210387  40.5378692  58.5587852  74.7481860  41.3973157
  58.8510595  74.8528764  39.9155947  63.9336201  77.6428823  31.2428021
  63.7954099  77.8330419  30.3149210  63.5772420  78.4048206  31.6996072
  52.0978327  71.6286918  37.3225033  52.7377706  71.4875677  36.6247996
  51.2655857  71.3421431  36.9463635  63.9605580  79.7105350  36.2539292
  64.3942087  79.6180639  37.1022346  64.6737161  79.6862850  35.6159308
  52.8738631  80.9289348  33.4360025  53.6679229  80.4339668  33.2342600
  52.1630323  80.4007211  33.0727731  57.6933475  83.3107444  37.7872393
  57.7470498  83.8798380  38.5550109  56.8248257  83.4809329  37.4226430
  49.1821394  75.0732430  29.5119778  48.2518982  75.0116885  29.7289740
  49.2778866  74.5508383  28.7156419  49.1006943  71.5987243  32.0998020
  49.3613761  72.5132576  31.9907180  49.9224116  71.1311685  32.2494632
  50.5731869  73.0125000  39.2696844  51.2454922  72.8042362  38.6209493
  49.7461655  72.8147086  38.8302076  64.8221130  79.7529050  38.7872178
  65.0157020  80.6574861  39.0331453  64.7221748  79.2936469  39.6210763
  56.4757441  69.6386941  41.2862505  55.8285356  70.3376891  41.1926981
  57.2458456  70.0723085  41.6538753  59.8836239  79.9035793  44.3613058
  59.7321745  79.6746345  43.4443142  59.8740918  80.8606395  44.3744403
  56.6521575  77.4767706  39.3459325  57.5813635  77.6278865  39.1728292
  56.2312605  77.5651727  38.4907971  55.4509907  81.5018370  37.1157862
  55.3120993  81.1337155  37.9883800  54.6624503  82.0166010  36.9441820
  56.0458059  86.6027467  28.4583399  56.2209814  86.1315510  29.2729022
  55.3590847  87.2293233  28.6864660  57.0015122  80.8799973  34.5046700
  56.6664955  80.8400743  35.4004350  56.5019068  80.2144689  34.0317110
  50.9759366  76.2867603  40.0299281  50.8379164  75.5547842  40.6310820
  51.8864289  76.1976503  39.7483469  59.9374314  78.2256007  24.7783760
  59.3203484  77.5002835  24.6816812  59.4690802  78.9865368  24.4350834
  53.6041667  75.9987562  39.5182961  54.3141285  75.3580755  39.4769579
  53.5610975  76.2500457  40.4409142  61.5928445  82.9354916  42.4389540
  61.5340991  82.2514136  41.7720123  61.9947964  83.6773906  41.9870166
  52.3170601  72.9852780  41.3378600  51.7807958  72.5343519  41.9900197
  51.7287309  73.1198689  40.5949065  50.6119144  89.7516829  35.2323259
  50.8515742  90.3835354  35.9102278  49.7688341  89.4004870  35.5188618
  51.7272860  72.4441432  23.9005064  50.8502326  72.3230232  23.5367311
  52.2030613  71.6527510  23.6483953  61.5945853  80.8994500  40.6703520
  60.7072631  80.5620421  40.7929919  62.1644404  80.1677531  40.9072285
  43.2475000  77.2318591  33.9946571  43.9346039  76.9180321  33.4067586
  43.0923128  78.1359956  33.7213823  48.0509722  72.1208788  38.4231595
  47.9667911  71.5134457  37.6882005  47.2292428  72.6117806  38.4241091
  55.1247006  85.5595952  37.6364763  55.0517177  86.3650923  38.1484068
  54.6824399  85.7587918  36.8112784  54.9136786  84.7967722  31.1467585
  54.1304307  85.3389402  31.2405809  55.6129531  85.3141702  31.5461826
  58.2233436  70.6062351  33.7901790  58.7202135  69.8532314  33.4702860
  57.4520417  70.6426668  33.2244999  66.0763193  76.3102717  35.4320081
  66.0653069  77.1927432  35.0614015  65.2080573  75.9574268  35.2374618
  57.5845689  85.4582786  39.7922922  58.2973662  86.0930251  39.7198823
  57.0935718  85.5546652  38.9762923  59.3063216  79.3634039  31.3640213
  58.3719495  79.4835501  31.1944918  59.4839885  78.4606505  31.1000223
  54.8068404  72.7479734  33.5173475  54.4366192  72.1950775  34.2054380
  55.3027497  72.1437868  32.9648475  62.6935768  75.2051358  31.8990247
  63.1596220  76.0379350  31.8250550  63.1443268  74.7396339  32.6035506
  52.6357603  83.2077229  40.6128492  53.3367062  83.8413712  40.7657887
  52.1652718  83.5491961  39.8524132  60.7611999  81.5495179  28.8976399
  61.0371843  81.4351774  29.8070274  59.8916498  81.1512664  28.8588573
  60.6652430  67.5731945  35.9381149  59.7515510  67.8036172  36.1063356
  61.0945532  67.6570389  36.7895181  60.4358889  75.7621837  38.4381043
  59.7830339  76.0097744  37.7833496  60.8139269  74.9485975  38.1043520
  57.3966063  85.7981530  32.5409213  57.5788457  84.9803186  33.0036965
  58.2199049  86.0149222  32.1034103  57.7308228  84.7249715  29.8024262
  58.2595995  84.2142170  29.1894424  57.9936448  84.4092245  30.6669795
  56.4846462  76.5041648  44.9247080  55.8087099  76.4035777  45.5949455
  57.3074096  76.3480862  45.3883077  48.2325321  82.7413584  37.5459595
  48.8178758  81.9957272  37.6787499  48.0350160  83.0517541  38.4296259
  51.0863976  85.7764832  32.5622038  50.4174352  86.2610959  32.0786078
  50.9476846  86.0234052  33.4765416  42.8242976  75.3119185  36.2664038
  42.8627075  74.7782775  37.0601156  42.3183269  74.7854390  35.6475015
  55.2269245  87.8108575  39.1604696  55.7787553  87.9740197  39.9253781
  55.5675438  88.4013013  38.4884721  50.2033738  70.1583725  39.7626581
  50.2675065  71.0198556  39.3503978  50.1400858  69.5457727  39.0298939
  49.6786011  72.2306858  43.4099615  50.3058049  71.8483935  44.0237139
  48.8213929  72.0121060  43.7755307  60.0780119  82.6369833  45.0153350
  60.6220023  83.2499791  44.5208305  59.4966964  83.1949411  45.5320363
  46.4551553  74.0383287  29.3417970  46.7504994  73.1293965  29.2885023
  45.5539589  74.0171026  29.0198972  58.3637632  85.7590551  36.1468378
  58.2388772  84.9580291  35.6379324  59.0216723  86.2536744  35.6582348
  49.9845800  72.1139283  35.3245518  49.2632386  72.7275251  35.1852992
  50.7739056  72.6497048  35.2462164  60.4272541  83.5599571  37.7747928
  59.4802876  83.4404922  37.7026255  60.7755314  82.6722069  37.8574190
  52.7872114  69.4493710  41.5986170  53.3106516  69.6956006  42.3612479
  52.5684447  70.2813745  41.1789307  48.1839395  71.7197384  29.4657295
  47.8552101  70.8394763  29.2832401  48.5378766  71.6645053  30.3533684
  57.4318974  83.3552287  33.9752280  57.2843936  82.4268995  34.1559850
  58.2572467  83.3772378  33.4909356  51.2981218  72.0070354  29.8332773
  51.6377291  72.5356276  29.1111381  51.7453339  72.3450760  30.6091339
  61.0353096  84.1780846  35.0617153  61.9599643  83.9723707  34.9241604
  60.8668399  83.9297247  35.9706495  53.9924659  70.3907405  39.2835841
  53.6521479  69.5915218  39.6856520  53.2863665  70.6909116  38.7112674
  54.6441131  67.4756717  37.7363164  55.4667200  67.0017196  37.6142054
  54.8879194  68.2547201  38.2361850  53.2849365  70.5044976  28.0326065
  54.0057728  70.8826229  27.5289782  52.6614669  71.2233853  28.1361043
  57.4280488  71.2090125  28.9684398  57.6444103  72.0914763  28.6673226
  56.9474555  70.8176338  28.2390040  52.1679710  74.1675838  35.5455142
  52.0224290  74.4816141  36.4379424  51.6904913  74.7860738  34.9926041
  54.0276092  71.1578386  35.5936032  54.0137661  70.2619479  35.2568330
  54.7448521  71.1649050  36.2274318  55.8802223  71.5915726  37.6389159
  55.6220001  72.5132797  37.6373490  55.3487263  71.1946161  38.3289623
  60.8248412  84.6966513  30.4179245  60.9985289  84.1312936  29.6653097
  61.3177303  85.4967408  30.2358735  46.6425372  76.7081182  38.4842803
  46.0978840  77.4840990  38.6163078  47.5204722  77.0551987  38.3261925
  53.4312988  70.0392766  30.8623602  53.5528900  69.1109413  31.0614489
  53.1415031  70.0531452  29.9501917  56.3004179  67.7247677  33.9990322
  56.3225876  67.7887010  33.0442301  56.7172238  66.8852185  34.1930828
  66.6787803  77.4602936  32.0369544  67.1218949  76.7110262  31.6388668
  65.8014313  77.4513073  31.6543276  61.8123584  84.0133278  27.5176143
  62.5074489  84.6339970  27.7363457  62.1546735  83.1628629  27.7928521
  47.4291394  75.8351079  41.3772960  46.6873130  75.9833714  41.9637591
  47.1084138  76.0959344  40.5139710  63.7115007  81.4632983  29.0463474
  64.2366332  81.8020256  28.3212794  63.6237360  80.5279999  28.8626608
  55.3735056  85.3767057  41.1753350  55.6822183  85.1316204  42.0476050
  56.1710538  85.5813695  40.6872220  55.3955668  87.5304967  33.4058727
  54.9560659  87.0381345  34.0991584  56.1463785  86.9877934  33.1650802
  47.8748007  83.7216507  33.4083355  48.7006027  83.4220279  33.0281998
  47.5242059  82.9524130  33.8573144  52.8429540  83.0742976  35.4781028
  52.2209550  82.4113681  35.1783256  53.5134407  83.1004108  34.7954676
  46.0756612  81.6402834  34.3672288  45.2388521  81.2125008  34.1856290
  46.0480258  81.8335277  35.3043080  52.9154068  71.5524764  45.0713535
  52.9642223  72.4286887  44.6891304  53.4576582  71.0102157  44.4985178
  63.4008914  82.0965887  44.3514672  62.6104457  82.0790026  43.8119171
  63.1642268  82.6354181  45.1063708  63.5206789  78.9458353  41.6647400
  63.5704794  78.7808361  42.6062923  63.4120712  78.0785612  41.2745281
  52.4043047  81.6246899  28.9539489  52.5531168  82.3082363  28.3006162
  53.2109491  81.6051989  29.4688945  60.8110551  74.9289281  42.9806707
  61.7120414  74.7895746  42.6890705  60.8858526  75.0943736  43.9204884
  55.1453356  72.3056136  41.8259893  54.2756666  72.5989702  41.5542482
  55.3812837  72.8896581  42.5467157  65.0224985  81.3655295  41.9089422
  64.7309794  81.7285275  42.7452883  64.4097117  80.6522303  41.7302754
  66.2220668  78.9308175  34.4291992  67.0567559  79.3697979  34.5929552
  66.3579797  78.4546828  33.6100238  63.2712174  76.4887909  40.3769480
  63.7466295  76.6815556  39.5688331  62.3477739  76.5447095  40.1312863
  50.1595680  77.6512077  29.9600558  49.9141722  76.7474407  30.1580768
  50.3291595  77.6529227  29.0180036  57.8492390  68.5235753  39.3425314
  58.3674334  69.2596780  39.0171802  57.4947523  68.8299746  40.1772073
  49.4291328  73.3840434  27.4586719  48.7360573  73.4584789  26.8026755
  49.1843080  72.6200778  27.9808236  58.1004984  64.9436036  34.8626210
  58.3806738  64.2759225  35.4886637  58.8855591  65.1365131  34.3500874
  55.9038453  84.1195029  26.4251236  55.3312420  84.7385217  25.9721708
  56.4771246  84.6694391  26.9591158  61.9713843  73.3653670  38.6097785
  62.9231266  73.4651767  38.6310009  61.8017293  72.5731938  39.1195870
  59.9928222  70.4509253  38.7957186  59.3978154  70.7314266  38.1003675
  59.7077919  70.9403154  39.5673927  59.1235713  84.4032180  27.5559819
  60.0566386  84.3377741  27.7592694  59.0358925  85.2388446  27.0974351
  61.7523729  83.7198050  24.5163766  61.6737361  83.3857914  25.4099524
  62.5733396  84.2119818  24.5155239  64.4501920  76.5859789  37.7240085
  64.4178241  75.6475790  37.9099769  65.0602544  76.6643826  36.9905910
  56.2885251  75.4555842  23.7667289  57.2344356  75.3262050  23.8355707
  55.9099496  74.7170504  24.2436717  64.5996409  73.3770833  37.7698368
  64.0835458  72.5929289  37.5828297  65.4836357  73.0489549  37.9344888
  62.2607136  67.1211848  33.7294181  62.0631957  66.8126936  34.6137513
  62.8706841  67.8473487  33.8592111  70.2678470  77.6475796  36.8646122
  70.9981859  77.3861084  37.4253825  69.6585416  76.9104518  36.9048190
  68.3493767  75.7883659  37.4620573  67.6226931  75.6539624  36.8537064
  67.9341054  76.0960487  38.2677291  56.1723944  79.5073588  45.2267946
  57.0926953  79.6852187  45.4207992  56.1373527  78.5629634  45.0747645
  54.4728168  73.3805819  23.7022174  53.5659624  73.0838931  23.7784888
  54.7504149  73.0835637  22.8356460  45.3906109  74.7012182  34.1521221
  45.0708893  73.8477490  33.8595595  44.8439537  74.9160760  34.9079188
  49.1686016  77.4174623  37.8690727  49.3872026  78.3491731  37.8878761
  49.5811790  77.0582597  38.6545531  56.0890234  67.9242708  29.8566415
  55.2790963  67.5789793  30.2321662  56.7774651  67.6150252  30.4454027
  58.0180782  67.0020755  31.4790712  58.5711821  67.4216209  32.1380735
  58.2550869  66.0756503  31.5213668  54.0413882  72.9907829  47.2593476
  53.9410609  73.9402186  47.1905567  53.8235424  72.6626068  46.3869546
  53.2426953  70.2392754  23.8434153  54.1046117  70.5647652  24.1029971
  53.4277297  69.4524250  23.3307219  45.2594369  78.3215094  36.1214342
  44.5657840  77.9069046  35.6084297  46.0067360  78.3635630  35.5247761
  61.3959590  69.1121280  30.9869376  60.8158259  69.7706084  30.6047429
  61.1295522  68.2898625  30.5756794  59.8463156  68.5126338  33.1890697
  60.3462934  68.6242873  32.3805016  60.4898764  68.2087391  33.8291505
  53.9045152  76.4204968  46.0758538  53.4212233  77.2205328  46.2822427
  53.9906091  76.4312912  45.1225982  47.1731111  78.2533347  33.9980357
  47.1501799  78.3521035  33.0462240  47.4831748  79.0998498  34.3197523
  49.8318489  80.3109502  38.1126971  50.7861743  80.2793445  38.0456903
  49.6331013  79.8500126  38.9277197  50.4217871  78.8810618  40.6797769
  51.2410760  79.3754697  40.7032606  50.6954679  77.9642587  40.6515337
  60.1784468  71.2721371  30.0425725  59.2910323  71.5571021  29.8245919
  60.5938457  71.1115134  29.1953002  63.5299004  71.2967892  33.7580064
  64.3059394  71.7864344  34.0304681  62.8047138  71.7225946  34.2151933
  65.9671562  72.0095511  34.8154004  66.5616053  71.7691247  34.1047313
  66.0398146  71.2902641  35.4427541  48.1868718  85.8529122  35.1297169
  48.0523186  85.0929523  34.5635167  47.7700780  86.5770022  34.6625958
  59.3227681  81.0366045  24.1373745  60.0263531  81.2416048  24.7531400
  58.5990330  81.6042807  24.4022828  60.1525491  76.7875907  30.2576015
  60.0960693  77.2444458  29.4183647  60.7053834  76.0266591  30.0798858
  63.9630297  72.5765638  31.0826134  63.7067231  72.1762274  31.9134342
  63.3383165  73.2909432  30.9576273  68.2742635  75.3161712  33.5897426
  67.7142193  75.3854901  34.3628988  67.6686138  75.1402696  32.8696922
  51.3437844  86.7498439  35.3415612  51.2270228  87.6943871  35.2394302
  50.5230290  86.4472000  35.7301411  61.2314378  81.4748575  26.1872205
  62.0659982  81.0429773  26.0049679  61.0698721  81.3030588  27.1149099
  60.8860271  77.9780688  27.5528544  60.8309074  77.8124959  26.6116988
  60.2606326  78.6856721  27.7090734  45.6752786  73.2148752  41.3789966
  46.3211649  72.7047706  41.8677191  45.4669937  73.9517434  41.9533391
  58.2006178  80.2829600  46.8782107  59.0697337  80.4570252  46.5168742
  57.7212929  81.1024017  46.7557836  54.1956396  67.4788797  27.1313862
  54.1835066  68.4230637  27.2882133  55.0879818  67.2958942  26.8373324
  52.3692358  87.4026701  38.5571540  53.2719605  87.4350311  38.8738035
  52.1429728  86.4727152  38.5717876  54.1245960  86.1557687  35.2181619
  53.1741591  86.1559549  35.1045991  54.4278446  85.4090422  34.7017654
  58.0108516  64.0731574  31.3859799  57.2440911  63.5190060  31.5316482
  58.4219221  64.1453442  32.2473951  50.0150277  70.3616369  45.4764980
  50.8781738  70.0053174  45.6868305  49.4415687  70.0230264  46.1640385
  69.8598654  91.9918226  36.2827381  70.4977064  91.8724973  35.5790721
  69.7419496  92.9399070  36.3415334  66.6688360  91.9445654  36.2188906
  66.3306871  91.8286718  35.3309441  67.5378128  91.5436819  36.1989912
  62.5275176  93.7981130  32.2085797  61.9640041  93.7071067  31.4402085
  62.4127571  92.9781035  32.6888290  67.1508143  93.0980506  42.1775112
  67.1396784  92.7033304  41.3055615  67.3128782  92.3646578  42.7708883
  60.0739607  95.2932322  35.0470018  60.8660899  94.9523146  34.6316317
  60.3136258  95.4027297  35.9672171  68.1074734  97.4652098  27.5200262
  67.4562714  98.0506178  27.1334276  68.9019097  97.9958293  27.5795299
  62.0330361  94.5541235  27.9187396  62.8061237  94.0070222  27.7800272
  62.3855760  95.4185484  28.1301858  63.8715404  95.8817617  41.1254296
  63.5805270  96.7863248  41.0100962  64.5072388  95.9234145  41.8398365
  64.7971611  93.2594466  37.7155655  65.3935183  93.0350488  37.0012618
  64.8546582  92.5179211  38.3181103  64.3696639  90.7133901  25.5505846
  64.6222160  90.1915422  24.7889309  63.4321198  90.5500047  25.6532530
  69.4139922  89.7169680  33.3580589  70.2003011  89.2989103  33.0071006
  69.6778626  90.6215772  33.5262238  69.5849999  95.1542530  28.0569246
  68.9495832  95.2277156  28.7690151  69.2547406  95.7436129  27.3788326
  74.8148349  89.6544913  34.2613568  75.5473521  89.0844130  34.4951397
  74.0587705  89.2666513  34.7020074  64.0892928  92.6162007  27.7530221
  63.9729186  91.9406910  28.4211305  64.1995188  92.1294381  26.9362374
  66.4324469  92.0772154  31.4576910  66.0682676  91.5502775  32.1689832
  67.2891585  91.6870623  31.2843396  72.3373770  83.3666487  38.7208177
  72.0057094  84.2361898  38.4969392  71.7419383  83.0502771  39.4002207
  66.0729956  87.1062054  26.4538259  66.2404358  87.9742290  26.8208730
  65.8827125  87.2689336  25.5299548  68.8305289  95.5679033  38.1204089
  68.5306012  96.4704072  38.0119897  68.4856349  95.3011216  38.9725242
  62.2817771  92.0192830  34.1540794  61.3568267  91.8869044  34.3618485
  62.5302184  92.7987049  34.6510736  72.2302433  88.0861573  35.8001527
  71.3219310  88.0176981  35.5060288  72.1790029  88.5633518  36.6283352
  66.0519177  89.5619711  27.4384926  65.9318802  90.0076762  28.2770406
  65.3571765  89.9105029  26.8798464  59.6426582  91.6626103  34.9884583
  59.7718963  91.9160582  35.9023994  58.9624033  92.2553811  34.6689238
  63.8126069 102.3323353  31.0875057  63.7350099 103.2831178  31.1663538
  63.2087712 101.9869226  31.7449983  66.3043299  89.5051219  43.7436424
  65.5276633  90.0645139  43.7339289  66.9433862  89.9908002  44.2651294
  74.0964079  86.2878011  37.5779401  73.4538459  86.5810545  36.9319195
  73.5919008  86.1730932  38.3832597  71.7504243  90.0341185  28.2665260
  72.6622099  90.2668571  28.0912957  71.2413890  90.6178229  27.7040338
  64.5589671  92.3136672  43.3054391  65.3004355  92.8521716  43.0289214
  63.8526656  92.9402961  43.4625943  70.0345011  94.4565812  41.9026552
  70.4428367  94.0148223  41.1581185  69.3122272  93.8818440  42.1560745
  66.3876081  89.3938419  39.2760109  67.2337276  89.8177833  39.4194758
  66.3274718  88.7372044  39.9698672  70.3573825  95.0167003  35.6578841
  69.7282688  95.1812717  34.9554909  69.9699487  95.4308613  36.4289805
  74.2363057  95.9521441  33.0123205  73.5514095  96.3320342  32.4620238
  74.3206906  96.5616768  33.7455153  69.5375526  87.0542788  40.9341283
  69.2936458  87.8084848  40.3975559  69.8135456  87.4328135  41.7688530
  71.4913989  93.5981400  39.6118549  71.7030884  94.2413160  38.9352930
  71.4443737  92.7643716  39.1440479  69.0940218  86.2099221  36.5155121
  68.2324697  86.5080474  36.8071858  69.1202652  86.4269619  35.5836153
  65.9101787  94.7541411  32.9228926  66.3740133  95.0329114  32.1333549
  65.6458585  93.8524856  32.7402017  62.8025868  94.3012893  35.8608690
  63.3727225  94.7300161  35.2226174  63.3933980  94.0195477  36.5592875
  64.8470673  90.8764564  29.7318491  65.5494716  91.3285607  30.1992418
  64.5151302  90.2348382  30.3598385  63.2951035  89.4676320  44.1069701
  62.6649695  90.1492601  44.3405098  63.1887123  89.3559402  43.1622839
  58.5896007  89.1348116  35.0335625  57.7995061  89.3905645  34.5575736
  59.0807254  89.9496454  35.1387666  72.6059817  96.4753355  37.7840906
  73.4277260  96.0733543  37.5023588  72.6022220  96.3721590  38.7357022
  60.5410752  89.4992695  31.9919102  59.7441916  89.6111390  32.5102597
  60.3136345  89.8379348  31.1259992  66.3716420  96.0237399  39.9401616
  66.4360853  96.4857806  40.7759788  65.6627344  95.3934764  40.0683926
  56.8733710  89.3878607  37.4650616  57.1241749  90.2725617  37.7308192
  57.4093258  89.2083208  36.6925708  80.6965810  92.8192104  34.1325877
  79.9429518  92.2499502  33.9769882  80.8313351  92.7854768  35.0796512
  66.0864438  97.6905506  29.8080597  65.9510113  98.5357042  30.2365445
  66.6274250  97.8924784  29.0446531  62.5731777  83.7697086  46.4694952
  62.1798723  83.2163285  47.1442596  63.3897918  84.0807664  46.8601469
  59.5393835  95.2080944  30.3808522  60.0518356  96.0024194  30.5314086
  60.1916548  94.5107235  30.3142123  61.3488720  98.3246700  32.4631275
  61.5255348  99.2464665  32.2752259  62.1445553  98.0105120  32.8925655
  65.4899738  85.1854965  44.0615208  66.2309452  85.7862118  43.9819671
  65.7217661  84.4432603  43.5033251  60.6341076  90.3711332  42.3393438
  60.5194592  89.4696590  42.6400537  59.7785594  90.6175029  41.9878255
  67.7132914  98.3129073  43.9380939  67.2696768  97.5265451  43.6201843
  68.3750128  98.5008223  43.2724830  62.4720035  99.8424874  38.4641617
  63.0227460  99.7141938  37.6918611  61.6331511 100.1419763  38.1136510
  69.8114152  98.5931873  41.9662340  69.7932628  99.4140754  41.4742609
  70.7334072  98.4685948  42.1912481  66.2687206  96.1076002  42.8085848
  66.8015543  95.3464290  42.5785156  65.7401287  95.8149654  43.5510003
  69.4356901  81.2136068  38.3379490  69.0921171  82.1037710  38.2618601
  69.8035864  81.0237726  37.4749075  57.5042752  93.5369598  31.1568092
  58.3417974  93.9466607  30.9401800  57.6821020  92.5969041  31.1268286
  69.4007184  91.2044679  26.8451925  68.8853807  91.9749284  27.0840313
  69.1284492  90.5309815  27.4684987  66.9854295  86.0494380  31.9037164
  66.1295891  85.6601230  31.7242802  67.3981247  86.1286341  31.0436949
  68.5153442  83.5840723  36.3028723  68.0118237  83.5470858  35.4896529
  68.8084049  84.4933466  36.3625380  64.7596328  83.6679453  35.3094905
  65.6249324  83.4722262  34.9500795  64.8273837  83.4389805  36.2364262
  74.3741458  93.9577034  28.7805099  73.5970901  93.6188193  28.3360261
  75.0532939  93.9629657  28.1060064  69.1893487  89.0771771  28.6711706
  68.8843623  89.3917920  29.5221850  70.1423929  89.1553191  28.7139039
  67.6339919  95.2361995  30.3204660  67.1061281  94.5014754  30.0077898
  67.1327422  96.0136671  30.0744629  72.6132765  93.4311015  35.4371707
  71.9556440  94.1210276  35.5251835  73.4173164  93.8207447  35.7805693
  62.3658647  85.8981661  32.6811272  62.9402399  85.6756842  31.9484465
  62.9529629  85.9670355  33.4339873  71.4238224  91.7855388  33.4875648
  71.9370106  92.4185380  33.9897358  72.0739448  91.1856583  33.1219009
  62.6928234  87.9286122  26.7007157  61.8565546  88.2660808  27.0216432
  62.5533003  87.7935102  25.7634294  64.6681314  82.7722910  31.4086341
  64.0145727  82.4571927  30.7842956  64.6261789  82.1498650  32.1346164
  65.7792519  93.0542205  23.3239633  64.8719581  92.8231458  23.5230782
  66.2763551  92.2579824  23.5113615  68.6860598 101.7639712  26.2436320
  68.0122297 102.0671409  26.8521277  69.0726420 102.5668792  25.8941777
  67.9019055  89.2604843  35.7333989  66.9841616  89.4819790  35.5755677
  68.3179198  89.3351154  34.8745696  68.6854103  90.6596259  30.8636669
  69.4325921  91.1717656  30.5543791  68.9545692  90.3380312  31.7241063
  66.9580753  93.1554800  27.8463624  66.0491972  92.8713832  27.9436093
  66.9875836  93.5753878  26.9866930  72.1900020  96.7661389  31.6154791
  71.7362347  95.9252299  31.6719982  71.5593987  97.4022788  31.9529571
  71.1332940  87.6953375  32.8455459  70.3955696  87.1830761  33.1765701
  71.3859713  87.2553757  32.0338735  70.6332959  98.6037886  32.5504609
  70.9255934  99.1642943  31.8316975  71.1431580  98.8966447  33.3057768
  71.2344567  80.4729627  33.4397228  71.5403444  79.6126991  33.1523143
  71.9597172  81.0647247  33.2396222  57.5268923  90.8760314  31.8278826
  57.3293323  90.2829674  31.1029892  56.9715587  90.5712524  32.5454765
  65.5065647  90.7683420  33.9473419  65.5614257  89.8157257  33.8715896
  64.6956849  90.9242859  34.4314717  66.6556840  94.6963543  25.1851702
  66.2176270  93.9799402  24.7257339  67.3967281  94.9239658  24.6236794
  63.4458007  89.3860480  31.7063798  62.6325872  89.6854651  32.1128990
  63.9417001  88.9916169  32.4238280  65.5966585  99.3818237  33.6398062
  65.5542763  99.6079083  32.7106594  66.5129283  99.1481612  33.7883864
  69.0432218  89.8502304  40.5378692  69.3981606  90.0773778  41.3973157
  69.6904350  90.1820681  39.9155947  74.7729955  92.9720740  31.2428021
  74.6347854  93.1622336  30.3149210  74.4166174  93.7340123  31.6996072
  62.9372081  86.9578836  37.3225033  63.5771461  86.8167595  36.6247996
  62.1049612  86.6713349  36.9463635  74.7999335  95.0397267  36.2539292
  75.2335842  94.9472556  37.1022346  75.5130916  95.0154768  35.6159308
  63.7132385  96.2581266  33.4360025  64.5072984  95.7631586  33.2342600
  63.0024078  95.7299129  33.0727731  68.5327230  98.6399361  37.7872393
  68.5864252  99.2090298  38.5550109  67.6642011  98.8101247  37.4226430
  60.0215149  90.4024348  29.5119778  59.0912737  90.3408803  29.7289740
  60.1172621  89.8800300  28.7156419  59.9400698  86.9279161  32.0998020
  60.2007515  87.8424494  31.9907180  60.7617870  86.4603603  32.2494632
  61.4125623  88.3416918  39.2696844  62.0848677  88.1334280  38.6209493
  60.5855410  88.1439004  38.8302076  75.6614884  95.0820968  38.7872178
  75.8550775  95.9866779  39.0331453  75.5615503  94.6228387  39.6210763
  67.3151195  84.9678859  41.2862505  66.6679110  85.6668808  41.1926981
  68.0852211  85.4015003  41.6538753  70.7229993  95.2327711  44.3613058
  70.5715500  95.0038262  43.4443142  70.7134673  96.1898312  44.3744403
  67.4915330  92.8059624  39.3459325  68.4207390  92.9570783  39.1728292
  67.0706360  92.8943644  38.4907971  66.2903661  96.8310288  37.1157862
  66.1514747  96.4629072  37.9883800  65.5018258  97.3457927  36.9441820
  66.8851813 101.9319384  28.4583399  67.0603569 101.4607428  29.2729022
  66.1984601 102.5585151  28.6864660  67.8408876  96.2091891  34.5046700
  67.5058709  96.1692661  35.4004350  67.3412822  95.5436607  34.0317110
  61.8153120  91.6159521  40.0299281  61.6772918  90.8839759  40.6310820
  62.7258044  91.5268421  39.7483469  70.7768068  93.5547925  24.7783760
  70.1597239  92.8294753  24.6816812  70.3084557  94.3157285  24.4350834
  64.4435421  91.3279480  39.5182961  65.1535040  90.6872672  39.4769579
  64.4004729  91.5792375  40.4409142  72.4322200  98.2646833  42.4389540
  72.3734746  97.5806053  41.7720123  72.8341718  99.0065823  41.9870166
  63.1564355  88.3144698  41.3378600  62.6201712  87.8635436  41.9900197
  62.5681064  88.4490607  40.5949065  61.4512899 105.0808747  35.2323259
  61.6909497 105.7127271  35.9102278  60.6082095 104.7296787  35.5188618
  62.5666614  87.7733349  23.9005064  61.6896080  87.6522150  23.5367311
  63.0424367  86.9819428  23.6483953  72.4339607  96.2286417  40.6703520
  71.5466386  95.8912339  40.7929919  73.0038158  95.4969448  40.9072285
  54.0868754  92.5610509  33.9946571  54.7739794  92.2472239  33.4067586
  53.9316883  93.4651874  33.7213823  58.8903476  87.4500706  38.4231595
  58.8061665  86.8426375  37.6882005  58.0686183  87.9409724  38.4241091
  65.9640760 100.8887870  37.6364763  65.8910932 101.6942841  38.1484068
  65.5218154 101.0879835  36.8112784  65.7530540 100.1259640  31.1467585
  64.9698062 100.6681320  31.2405809  66.4523285 100.6433619  31.5461826
  69.0627190  85.9354269  33.7901790  69.5595890  85.1824231  33.4702860
  68.2914172  85.9718586  33.2244999  76.9156948  91.6394635  35.4320081
  76.9046824  92.5219350  35.0614015  76.0474327  91.2866185  35.2374618
  68.4239444 100.7874704  39.7922922  69.1367416 101.4222168  39.7198823
  67.9329473 100.8838570  38.9762923  70.1456971  94.6925956  31.3640213
  69.2113250  94.8127419  31.1944918  70.3233639  93.7898423  31.1000223
  65.6462159  88.0771652  33.5173475  65.2759946  87.5242692  34.2054380
  66.1421251  87.4729786  32.9648475  73.5329522  90.5343276  31.8990247
  73.9989974  91.3671267  31.8250550  73.9837023  90.0688257  32.6035506
  63.4751357  98.5369147  40.6128492  64.1760817  99.1705630  40.7657887
  63.0046472  98.8783879  39.8524132  71.6005753  96.8787097  28.8976399
  71.8765597  96.7643691  29.8070274  70.7310252  96.4804582  28.8588573
  71.5046185  82.9023863  35.9381149  70.5909265  83.1328089  36.1063356
  71.9339286  82.9862307  36.7895181  71.2752643  91.0913755  38.4381043
  70.6224094  91.3389662  37.7833496  71.6533023  90.2777893  38.1043520
  68.2359817 101.1273448  32.5409213  68.4182212 100.3095104  33.0036965
  69.0592803 101.3441140  32.1034103  68.5701983 100.0541633  29.8024262
  69.0989749  99.5434087  29.1894424  68.8330202  99.7384163  30.6669795
  67.3240216  91.8333566  44.9247080  66.6480853  91.7327695  45.5949455
  68.1467850  91.6772779  45.3883077  59.0719076  98.0705502  37.5459595
  59.6572512  97.3249190  37.6787499  58.8743914  98.3809459  38.4296259
  61.9257731 101.1056750  32.5622038  61.2568106 101.5902877  32.0786078
  61.7870600 101.3525970  33.4765416  53.6636730  90.6411102  36.2664038
  53.7020830  90.1074693  37.0601156  53.1577023  90.1146308  35.6475015
  66.0662999 103.1400493  39.1604696  66.6181307 103.3032115  39.9253781
  66.4069193 103.7304931  38.4884721  61.0427493  85.4875643  39.7626581
  61.1068819  86.3490474  39.3503978  60.9794613  84.8749645  39.0298939
  60.5179765  87.5598775  43.4099615  61.1451804  87.1775853  44.0237139
  59.6607684  87.3412977  43.7755307  70.9173874  97.9661751  45.0153350
  71.4613778  98.5791709  44.5208305  70.3360719  98.5241329  45.5320363
  57.2945308  89.3675205  29.3417970  57.5898749  88.4585883  29.2885023
  56.3933344  89.3462944  29.0198972  69.2031387 101.0882469  36.1468378
  69.0782526 100.2872208  35.6379324  69.8610478 101.5828662  35.6582348
  60.8239555  87.4431201  35.3245518  60.1026141  88.0567169  35.1852992
  61.6132811  87.9788966  35.2462164  71.2666295  98.8891489  37.7747928
  70.3196631  98.7696840  37.7026255  71.6149068  98.0013987  37.8574190
  63.6265868  84.7785628  41.5986170  64.1500270  85.0247924  42.3612479
  63.4078202  85.6105662  41.1789307  59.0233149  87.0489302  29.4657295
  58.6945856  86.1686681  29.2832401  59.3772520  86.9936971  30.3533684
  68.2712728  98.6844205  33.9752280  68.1237691  97.7560912  34.1559850
  69.0966222  98.7064296  33.4909356  62.1374973  87.3362272  29.8332773
  62.4771045  87.8648193  29.1111381  62.5847093  87.6742678  30.6091339
  71.8746850  99.5072764  35.0617153  72.7993398  99.3015625  34.9241604
  71.7062154  99.2589165  35.9706495  64.8318413  85.7199323  39.2835841
  64.4915234  84.9207136  39.6856520  64.1257420  86.0201034  38.7112674
  65.4834885  82.8048635  37.7363164  66.3060955  82.3309113  37.6142054
  65.7272949  83.5839119  38.2361850  64.1243120  85.8336894  28.0326065
  64.8451482  86.2118146  27.5289782  63.5008424  86.5525770  28.1361043
  68.2674243  86.5382043  28.9684398  68.4837857  87.4206680  28.6673226
  67.7868310  86.1468256  28.2390040  63.0073464  89.4967756  35.5455142
  62.8618045  89.8108059  36.4379424  62.5298668  90.1152656  34.9926041
  64.8669847  86.4870304  35.5936032  64.8531416  85.5911397  35.2568330
  65.5842275  86.4940967  36.2274318  66.7195978  86.9207644  37.6389159
  66.4613755  87.8424715  37.6373490  66.1881018  86.5238078  38.3289623
  71.6642166 100.0258431  30.4179245  71.8379044  99.4604854  29.6653097
  72.1571058 100.8259326  30.2358735  57.4819126  92.0373100  38.4842803
  56.9372594  92.8132908  38.6163078  58.3598476  92.3843905  38.3261925
  64.2706743  85.3684684  30.8623602  64.3922654  84.4401330  31.0614489
  63.9808785  85.3823370  29.9501917  67.1397933  83.0539594  33.9990322
  67.1619630  83.1178928  33.0442301  67.5565992  82.2144103  34.1930828
  77.5181558  92.7894854  32.0369544  77.9612704  92.0402179  31.6388668
  76.6408068  92.7804990  31.6543276  72.6517339  99.3425195  27.5176143
  73.3468243  99.9631888  27.7363457  72.9940489  98.4920547  27.7928521
  58.2685148  91.1642996  41.3772960  57.5266884  91.3125632  41.9637591
  57.9477892  91.4251262  40.5139710  74.5508762  96.7924901  29.0463474
  75.0760086  97.1312174  28.3212794  74.4631115  95.8571916  28.8626608
  66.2128811 100.7058975  41.1753350  66.5215937 100.4608121  42.0476050
  67.0104293 100.9105613  40.6872220  66.2349423 102.8596884  33.4058727
  65.7954413 102.3673263  34.0991584  66.9857540 102.3169852  33.1650802
  58.7141762  99.0508425  33.4083355  59.5399782  98.7512197  33.0281998
  58.3635814  98.2816048  33.8573144  63.6823295  98.4034893  35.4781028
  63.0603304  97.7405598  35.1783256  64.3528162  98.4296025  34.7954676
  56.9150367  96.9694752  34.3672288  56.0782275  96.5416926  34.1856290
  56.8874012  97.1627195  35.3043080  63.7547822  86.8816681  45.0713535
  63.8035978  87.7578804  44.6891304  64.2970337  86.3394074  44.4985178
  74.2402668  97.4257805  44.3514672  73.4498212  97.4081943  43.8119171
  74.0036023  97.9646098  45.1063708  74.3600543  94.2750271  41.6647400
  74.4098548  94.1100278  42.6062923  74.2514466  93.4077530  41.2745281
  63.2436802  96.9538817  28.9539489  63.3924922  97.6374281  28.3006162
  64.0503245  96.9343907  29.4688945  71.6504305  90.2581199  42.9806707
  72.5514168  90.1187664  42.6890705  71.7252280  90.4235654  43.9204884
  65.9847111  87.6348054  41.8259893  65.1150420  87.9281620  41.5542482
  66.2206591  88.2188499  42.5467157  75.8618740  96.6947213  41.9089422
  75.5703548  97.0577193  42.7452883  75.2490871  95.9814221  41.7302754
  77.0614422  94.2600092  34.4291992  77.8961314  94.6989896  34.5929552
  77.1973551  93.7838746  33.6100238  74.1105928  91.8179827  40.3769480
  74.5860050  92.0107473  39.5688331  73.1871494  91.8739013  40.1312863
  60.9989435  92.9803994  29.9600558  60.7535477  92.0766324  30.1580768
  61.1685349  92.9821145  29.0180036  68.6886145  83.8527671  39.3425314
  69.2068089  84.5888698  39.0171802  68.3341277  84.1591664  40.1772073
  60.2685082  88.7132352  27.4586719  59.5754327  88.7876707  26.8026755
  60.0236834  87.9492696  27.9808236  68.9398739  80.2727953  34.8626210
  69.2200493  79.6051142  35.4886637  69.7249346  80.4657049  34.3500874
  66.7432207  99.4486947  26.4251236  66.1706174 100.0677134  25.9721708
  67.3165001  99.9986309  26.9591158  72.8107597  88.6945587  38.6097785
  73.7625020  88.7943685  38.6310009  72.6411048  87.9023856  39.1195870
  70.8321977  85.7801170  38.7957186  70.2371909  86.0606183  38.1003675
  70.5471673  86.2695071  39.5673927  69.9629467  99.7324097  27.5559819
  70.8960140  99.6669659  27.7592694  69.8752680 100.5680364  27.0974351
  72.5917484  99.0489968  24.5163766  72.5131115  98.7149831  25.4099524
  73.4127151  99.5411736  24.5155239  75.2895675  91.9151707  37.7240085
  75.2571995  90.9767708  37.9099769  75.8996299  91.9935744  36.9905910
  67.1279006  90.7847760  23.7667289  68.0738111  90.6553968  23.8355707
  66.7493251  90.0462422  24.2436717  75.4390163  88.7062750  37.7698368
  74.9229212  87.9221207  37.5828297  76.3230112  88.3781467  37.9344888
  73.1000890  82.4503766  33.7294181  72.9025711  82.1418854  34.6137513
  73.7100596  83.1765405  33.8592111  81.1072225  92.9767714  36.8646122
  81.8375613  92.7153002  37.4253825  80.4979170  92.2396436  36.9048190
  79.1887522  91.1175576  37.4620573  78.4620685  90.9831541  36.8537064
  78.7734809  91.4252405  38.2677291  67.0117698  94.8365506  45.2267946
  67.9320708  95.0144105  45.4207992  66.9767281  93.8921551  45.0747645
  65.3121923  88.7097736  23.7022174  64.4053378  88.4130849  23.7784888
  65.5897904  88.4127554  22.8356460  56.2299863  90.0304100  34.1521221
  55.9102648  89.1769408  33.8595595  55.6833292  90.2452678  34.9079188
  60.0079771  92.7466541  37.8690727  60.2265781  93.6783649  37.8878761
  60.4205545  92.3874515  38.6545531  66.9283989  83.2534626  29.8566415
  66.1184717  82.9081711  30.2321662  67.6168406  82.9442170  30.4454027
  68.8574537  82.3312673  31.4790712  69.4105576  82.7508126  32.1380735
  69.0944623  81.4048421  31.5213668  64.8807636  88.3199746  47.2593476
  64.7804363  89.2694103  47.1905567  64.6629178  87.9917985  46.3869546
  64.0820708  85.5684672  23.8434153  64.9439872  85.8939570  24.1029971
  64.2671052  84.7816167  23.3307219  56.0988123  93.6507011  36.1214342
  55.4051595  93.2360964  35.6084297  56.8461114  93.6927548  35.5247761
  72.2353344  84.4413198  30.9869376  71.6552013  85.0998002  30.6047429
  71.9689277  83.6190543  30.5756794  70.6856910  83.8418256  33.1890697
  71.1856689  83.9534790  32.3805016  71.3292518  83.5379309  33.8291505
  64.7438906  91.7496885  46.0758538  64.2605988  92.5497245  46.2822427
  64.8299845  91.7604830  45.1225982  58.0124866  93.5825265  33.9980357
  57.9895554  93.6812952  33.0462240  58.3225502  94.4290416  34.3197523
  60.6712244  95.6401420  38.1126971  61.6255497  95.6085362  38.0456903
  60.4724767  95.1792044  38.9277197  61.2611626  94.2102536  40.6797769
  62.0804515  94.7046615  40.7032606  61.5348434  93.2934504  40.6515337
  71.0178222  86.6013288  30.0425725  70.1304077  86.8862939  29.8245919
  71.4332211  86.4407052  29.1953002  74.3692758  86.6259809  33.7580064
  75.1453148  87.1156262  34.0304681  73.6440892  87.0517864  34.2151933
  76.8065317  87.3387429  34.8154004  77.4009808  87.0983165  34.1047313
  76.8791901  86.6194559  35.4427541  59.0262473 101.1821040  35.1297169
  58.8916940 100.4221440  34.5635167  58.6094535 101.9061939  34.6625958
  70.1621436  96.3657963  24.1373745  70.8657286  96.5707966  24.7531400
  69.4384084  96.9334725  24.4022828  70.9919246  92.1167824  30.2576015
  70.9354447  92.5736376  29.4183647  71.5447588  91.3558509  30.0798858
  74.8024052  87.9057556  31.0826134  74.5460986  87.5054192  31.9134342
  74.1776920  88.6201350  30.9576273  79.1136390  90.6453629  33.5897426
  78.5535948  90.7146819  34.3628988  78.5079893  90.4694614  32.8696922
  62.1831598 102.0790357  35.3415612  62.0663983 103.0235789  35.2394302
  61.3624045 101.7763918  35.7301411  72.0708133  96.8040492  26.1872205
  72.9053737  96.3721691  26.0049679  71.9092476  96.6322506  27.1149099
  71.7254025  93.3072606  27.5528544  71.6702829  93.1416877  26.6116988
  71.1000080  94.0148638  27.7090734  56.5146540  88.5440670  41.3789966
  57.1605404  88.0339624  41.8677191  56.3063691  89.2809352  41.9533391
  69.0399932  95.6121517  46.8782107  69.9091092  95.7862170  46.5168742
  68.5606684  96.4315934  46.7557836  65.0350151  82.8080715  27.1313862
  65.0228820  83.7522554  27.2882133  65.9273572  82.6250860  26.8373324
  63.2086113 102.7318618  38.5571540  64.1113359 102.7642229  38.8738035
  62.9823483 101.8019069  38.5717876  64.9639715 101.4849605  35.2181619
  64.0135346 101.4851467  35.1045991  65.2672201 100.7382340  34.7017654
  68.8502270  79.4023491  31.3859799  68.0834666  78.8481978  31.5316482
  69.2612975  79.4745360  32.2473951  60.8544031  85.6908287  45.4764980
  61.7175493  85.3345092  45.6868305  60.2809442  85.3522182  46.1640385
  80.6992408 107.3210143  36.2827381  81.3370818 107.2016891  35.5790721
  80.5813251 108.2690987  36.3415334  77.5082114 107.2737571  36.2188906
  77.1700626 107.1578636  35.3309441  78.3771883 106.8728737  36.1989912
  73.3668930 109.1273048  32.2085797  72.8033795 109.0362985  31.4402085
  73.2521325 108.3072952  32.6888290  77.9901897 108.4272423  42.1775112
  77.9790538 108.0325221  41.3055615  78.1522537 107.6938496  42.7708883
  70.9133362 110.6224239  35.0470018  71.7054654 110.2815064  34.6316317
  71.1530012 110.7319215  35.9672171  78.9468489 112.7944016  27.5200262
  78.2956468 113.3798096  27.1334276  79.7412852 113.3250210  27.5795299
  72.8724116 109.8833153  27.9187396  73.6454992 109.3362140  27.7800272
  73.2249515 110.7477402  28.1301858  74.7109158 111.2109535  41.1254296
  74.4199024 112.1155166  41.0100962  75.3466143 111.2526063  41.8398365
  75.6365365 108.5886384  37.7155655  76.2328938 108.3642406  37.0012618
  75.6940337 107.8471129  38.3181103  75.2090394 106.0425819  25.5505846
  75.4615914 105.5207340  24.7889309  74.2714953 105.8791964  25.6532530
  80.2533677 105.0461597  33.3580589  81.0396766 104.6281020  33.0071006
  80.5172381 105.9507689  33.5262238  80.4243754 110.4834448  28.0569246
  79.7889587 110.5569074  28.7690151  80.0941160 111.0728046  27.3788326
  85.6542104 104.9836830  34.2613568  86.3867276 104.4136047  34.4951397
  84.8981459 104.5958431  34.7020074  74.9286682 107.9453925  27.7530221
  74.8122941 107.2698828  28.4211305  75.0388942 107.4586299  26.9362374
  77.2718223 107.4064072  31.4576910  76.9076431 106.8794693  32.1689832
  78.1285339 107.0162541  31.2843396  83.1767524  98.6958405  38.7208177
  82.8450849  99.5653815  38.4969392  82.5813137  98.3794689  39.4002207
  76.9123710 102.4353972  26.4538259  77.0798113 103.3034208  26.8208730
  76.7220879 102.5981253  25.5299548  79.6699044 110.8970950  38.1204089
  79.3699767 111.7995989  38.0119897  79.3250103 110.6303134  38.9725242
  73.1211525 107.3484747  34.1540794  72.1962021 107.2160961  34.3618485
  73.3695938 108.1278967  34.6510736  83.0696187 103.4153491  35.8001527
  82.1613065 103.3468899  35.5060288  83.0183783 103.8925436  36.6283352
  76.8912931 104.8911629  27.4384926  76.7712556 105.3368680  28.2770406
  76.1965520 105.2396947  26.8798464  70.4820336 106.9918021  34.9884583
  70.6112717 107.2452500  35.9023994  69.8017787 107.5845729  34.6689238
  74.6519823 117.6615271  31.0875057  74.5743853 118.6123096  31.1663538
  74.0481467 117.3161143  31.7449983  77.1437053 104.8343136  43.7436424
  76.3670387 105.3937056  43.7339289  77.7827616 105.3199919  44.2651294
  84.9357834 101.6169929  37.5779401  84.2932214 101.9102462  36.9319195
  84.4312762 101.5022849  38.3832597  82.5897997 105.3633102  28.2665260
  83.5015854 105.5960489  28.0912957  82.0807644 105.9470146  27.7040338
  75.3983425 107.6428590  43.3054391  76.1398110 108.1813634  43.0289214
  74.6920411 108.2694878  43.4625943  80.8738765 109.7857730  41.9026552
  81.2822121 109.3440141  41.1581185  80.1516027 109.2110358  42.1560745
  77.2269835 104.7230337  39.2760109  78.0731030 105.1469750  39.4194758
  77.1668473 104.0663961  39.9698672  81.1967580 110.3458921  35.6578841
  80.5676442 110.5104635  34.9554909  80.8093242 110.7600530  36.4289805
  85.0756812 111.2813359  33.0123205  84.3907850 111.6612260  32.4620238
  85.1600661 111.8908685  33.7455153  80.3769280 102.3834705  40.9341283
  80.1330212 103.1376766  40.3975559  80.6529211 102.7620053  41.7688530
  82.3307743 108.9273318  39.6118549  82.5424638 109.5705077  38.9352930
  82.2837491 108.0935634  39.1440479  79.9333972 101.5391138  36.5155121
  79.0718451 101.8372392  36.8071858  79.9596407 101.7561537  35.5836153
  76.7495542 110.0833329  32.9228926  77.2133887 110.3621032  32.1333549
  76.4852340 109.1816773  32.7402017  73.6419623 109.6304810  35.8608690
  74.2120980 110.0592079  35.2226174  74.2327734 109.3487395  36.5592875
  75.6864428 106.2056481  29.7318491  76.3888471 106.6577525  30.1992418
  75.3545056 105.5640300  30.3598385  74.1344789 104.7968238  44.1069701
  73.5043450 105.4784519  44.3405098  74.0280877 104.6851319  43.1622839
  69.4289762 104.4640034  35.0335625  68.6388816 104.7197562  34.5575736
  69.9201009 105.2788372  35.1387666  83.4453571 111.8045273  37.7840906
  84.2671015 111.4025460  37.5023588  83.4415974 111.7013507  38.7357022
  71.3804507 104.8284613  31.9919102  70.5835670 104.9403307  32.5102597
  71.1530099 105.1671265  31.1259992  77.2110175 111.3529316  39.9401616
  77.2754607 111.8149724  40.7759788  76.5021098 110.7226681  40.0683926
  67.7127465 104.7170524  37.4650616  67.9635503 105.6017534  37.7308192
  68.2487013 104.5375126  36.6925708  91.5359564 108.1484021  34.1325877
  90.7823273 107.5791420  33.9769882  91.6707105 108.1146686  35.0796512
  76.9258192 113.0197424  29.8080597  76.7903867 113.8648960  30.2365445
  77.4668005 113.2216701  29.0446531  73.4125532  99.0989004  46.4694952
  73.0192477  98.5455202  47.1442596  74.2291672  99.4099582  46.8601469
  70.3787590 110.5372862  30.3808522  70.8912110 111.3316112  30.5314086
  71.0310302 109.8399152  30.3142123  72.1882474 113.6538618  32.4631275
  72.3649103 114.5756583  32.2752259  72.9839308 113.3397037  32.8925655
  76.3293493 100.5146883  44.0615208  77.0703206 101.1154036  43.9819671
  76.5611416  99.7724521  43.5033251  71.4734831 105.7003250  42.3393438
  71.3588346 104.7988507  42.6400537  70.6179349 105.9466947  41.9878255
  78.5526669 113.6420990  43.9380939  78.1090523 112.8557369  43.6201843
  79.2143882 113.8300141  43.2724830  73.3113790 115.1716792  38.4641617
  73.8621215 115.0433855  37.6918611  72.4725266 115.4711681  38.1136510
  80.6507907 113.9223790  41.9662340  80.6326382 114.7432671  41.4742609
  81.5727827 113.7977865  42.1912481  77.1080961 111.4367920  42.8085848
  77.6409298 110.6756208  42.5785156  76.5795042 111.1441572  43.5510003
  80.2750656  96.5427986  38.3379490  79.9314925  97.4329627  38.2618601
  80.6429618  96.3529643  37.4749075  68.3436506 108.8661516  31.1568092
  69.1811728 109.2758525  30.9401800  68.5214774 107.9260958  31.1268286
  80.2400939 106.5336597  26.8451925  79.7247562 107.3041201  27.0840313
  79.9678247 105.8601733  27.4684987  77.8248050 101.3786298  31.9037164
  76.9689646 100.9893148  31.7242802  78.2375001 101.4578258  31.0436949
  79.3547196  98.9132641  36.3028723  78.8511992  98.8762776  35.4896529
  79.6477803  99.8225384  36.3625380  75.5990082  98.9971371  35.3094905
  76.4643079  98.8014179  34.9500795  75.6667591  98.7681722  36.2364262
  85.2135213 109.2868951  28.7805099  84.4364655 108.9480111  28.3360261
  85.8926694 109.2921575  28.1060064  80.0287242 104.4063689  28.6711706
  79.7237377 104.7209838  29.5221850  80.9817684 104.4845109  28.7139039
  78.4733674 110.5653912  30.3204660  77.9455035 109.8306672  30.0077898
  77.9721176 111.3428589  30.0744629  83.4526520 108.7602933  35.4371707
  82.7950194 109.4502194  35.5251835  84.2566919 109.1499365  35.7805693
  73.2052401 101.2273578  32.6811272  73.7796153 101.0048760  31.9484465
  73.7923384 101.2962273  33.4339873  82.2631978 107.1147305  33.4875648
  82.7763860 107.7477297  33.9897358  82.9133202 106.5148501  33.1219009
  73.5321988 103.2578040  26.7007157  72.6959301 103.5952726  27.0216432
  73.3926758 103.1227019  25.7634294  75.5075069  98.1014827  31.4086341
  74.8539481  97.7863845  30.7842956  75.4655543  97.4790568  32.1346164
  76.6186274 108.3834122  23.3239633  75.7113335 108.1523376  23.5230782
  77.1157306 107.5871742  23.5113615  78.7412809 104.5896761  35.7333989
  77.8235371 104.8111708  35.5755677  79.1572953 104.6643071  34.8745696
  79.5247857 105.9888177  30.8636669  80.2719676 106.5009574  30.5543791
  79.7939447 105.6672229  31.7241063  77.7974507 108.4846717  27.8463624
  76.8885726 108.2005750  27.9436093  77.8269591 108.9045796  26.9866930
  83.0293775 112.0953307  31.6154791  82.5756102 111.2544217  31.6719982
  82.3987741 112.7314705  31.9529571  81.9726694 103.0245293  32.8455459
  81.2349451 102.5122679  33.1765701  82.2253468 102.5845674  32.0338735
  81.4726714 113.9329804  32.5504609  81.7649688 114.4934861  31.8316975
  81.9825334 114.2258365  33.3057768  82.0738321  95.8021545  33.4397228
  82.3797198  94.9418908  33.1523143  82.7990926  96.3939165  33.2396222
  68.3662678 106.2052231  31.8278826  68.1687077 105.6121592  31.1029892
  67.8109342 105.9004442  32.5454765  76.3459401 106.0975338  33.9473419
  76.4008011 105.1449174  33.8715896  75.5350603 106.2534777  34.4314717
  77.4950595 110.0255461  25.1851702  77.0570025 109.3091320  24.7257339
  78.2361036 110.2531576  24.6236794  74.2851761 104.7152398  31.7063798
  73.4719627 105.0146568  32.1128990  74.7810755 104.3208086  32.4238280
  76.4360339 114.7110155  33.6398062  76.3936518 114.9371001  32.7106594
  77.3523038 114.4773529  33.7883864  79.8825973 105.1794222  40.5378692
  80.2375361 105.4065695  41.3973157  80.5298104 105.5112599  39.9155947
  85.6123710 108.3012658  31.2428021  85.4741608 108.4914254  30.3149210
  85.2559929 109.0632041  31.6996072  73.7765836 102.2870753  37.3225033
  74.4165215 102.1459512  36.6247996  72.9443366 102.0005267  36.9463635
  85.6393089 110.3689185  36.2539292  86.0729596 110.2764474  37.1022346
  86.3524670 110.3446686  35.6159308  74.5526140 111.5873184  33.4360025
  75.3466738 111.0923504  33.2342600  73.8417832 111.0591047  33.0727731
  79.3720984 113.9691279  37.7872393  79.4258007 114.5382215  38.5550109
  78.5035766 114.1393164  37.4226430  70.8608903 105.7316265  29.5119778
  69.9306491 105.6700721  29.7289740  70.9566375 105.2092218  28.7156419
  70.7794452 102.2571078  32.0998020  71.0401270 103.1716411  31.9907180
  71.6011625 101.7895521  32.2494632  72.2519378 103.6708835  39.2696844
  72.9242431 103.4626197  38.6209493  71.4249164 103.4730921  38.8302076
  86.5008639 110.4112886  38.7872178  86.6944529 111.3158696  39.0331453
  86.4009257 109.9520305  39.6210763  78.1544950 100.2970776  41.2862505
  77.5072865 100.9960726  41.1926981  78.9245965 100.7306920  41.6538753
  81.5623748 110.5619628  44.3613058  81.4109254 110.3330180  43.4443142
  81.5528427 111.5190230  44.3744403  78.3309084 108.1351541  39.3459325
  79.2601144 108.2862701  39.1728292  77.9100114 108.2235562  38.4907971
  77.1297416 112.1602206  37.1157862  76.9908501 111.7920990  37.9883800
  76.3412012 112.6749845  36.9441820  77.7245568 117.2611302  28.4583399
  77.8997323 116.7899345  29.2729022  77.0378356 117.8877068  28.6864660
  78.6802631 111.5383808  34.5046700  78.3452464 111.4984578  35.4004350
  78.1806577 110.8728524  34.0317110  72.6546875 106.9451438  40.0299281
  72.5166673 106.2131677  40.6310820  73.5651798 106.8560338  39.7483469
  81.6161823 108.8839843  24.7783760  80.9990993 108.1586671  24.6816812
  81.1478311 109.6449203  24.4350834  75.2829176 106.6571398  39.5182961
  75.9928794 106.0164590  39.4769579  75.2398484 106.9084293  40.4409142
  83.2715954 113.5938751  42.4389540  83.2128500 112.9097971  41.7720123
  83.6735473 114.3357741  41.9870166  73.9958110 103.6436616  41.3378600
  73.4595467 103.1927354  41.9900197  73.4074818 103.7782524  40.5949065
  72.2906653 120.4100665  35.2323259  72.5303251 121.0419189  35.9102278
  71.4475850 120.0588705  35.5188618  73.4060369 103.1025267  23.9005064
  72.5289835 102.9814068  23.5367311  73.8818122 102.3111345  23.6483953
  83.2733362 111.5578335  40.6703520  82.3860140 111.2204257  40.7929919
  83.8431913 110.8261366  40.9072285  64.9262509 107.8902427  33.9946571
  65.6133548 107.5764157  33.4067586  64.7710637 108.7943791  33.7213823
  69.7297231 102.7792623  38.4231595  69.6455420 102.1718293  37.6882005
  68.9079937 103.2701642  38.4241091  76.8034515 116.2179787  37.6364763
  76.7304686 117.0234759  38.1484068  76.3611908 116.4171753  36.8112784
  76.5924295 115.4551557  31.1467585  75.8091816 115.9973238  31.2405809
  77.2917040 115.9725537  31.5461826  79.9020945 101.2646187  33.7901790
  80.3989644 100.5116149  33.4702860  79.1307926 101.3010503  33.2244999
  87.7550702 106.9686552  35.4320081  87.7440578 107.8511268  35.0614015
  86.8868081 106.6158103  35.2374618  79.2633198 116.1166621  39.7922922
  79.9761171 116.7514086  39.7198823  78.7723227 116.2130487  38.9762923
  80.9850725 110.0217874  31.3640213  80.0507004 110.1419336  31.1944918
  81.1627394 109.1190341  31.1000223  76.4855913 103.4063570  33.5173475
  76.1153701 102.8534610  34.2054380  76.9815006 102.8021703  32.9648475
  84.3723277 105.8635193  31.8990247  84.8383729 106.6963185  31.8250550
  84.8230777 105.3980175  32.6035506  74.3145112 113.8661065  40.6128492
  75.0154571 114.4997548  40.7657887  73.8440227 114.2075796  39.8524132
  82.4399508 112.2079015  28.8976399  82.7159352 112.0935609  29.8070274
  81.5704007 111.8096499  28.8588573  82.3439939  98.2315780  35.9381149
  81.4303019  98.4620007  36.1063356  82.7733041  98.3154224  36.7895181
  82.1146398 106.4205672  38.4381043  81.4617848 106.6681580  37.7833496
  82.4926778 105.6069810  38.1043520  79.0753572 116.4565365  32.5409213
  79.2575966 115.6387021  33.0036965  79.8986558 116.6733058  32.1034103
  79.4095737 115.3833551  29.8024262  79.9383504 114.8726005  29.1894424
  79.6723957 115.0676081  30.6669795  78.1633971 107.1625483  44.9247080
  77.4874608 107.0619613  45.5949455  78.9861605 107.0064697  45.3883077
  69.9112830 113.3997420  37.5459595  70.4966267 112.6541108  37.6787499
  69.7137668 113.7101377  38.4296259  72.7651485 116.4348667  32.5622038
  72.0961861 116.9194795  32.0786078  72.6264355 116.6817888  33.4765416
  64.5030485 105.9703020  36.2664038  64.5414584 105.4366611  37.0601156
  63.9970778 105.4438226  35.6475015  76.9056754 118.4692411  39.1604696
  77.4575062 118.6324032  39.9253781  77.2462947 119.0596849  38.4884721
  71.8821247 100.8167561  39.7626581  71.9462574 101.6782391  39.3503978
  71.8188367 100.2041562  39.0298939  71.3573520 102.8890693  43.4099615
  71.9845558 102.5067770  44.0237139  70.5001438 102.6704895  43.7755307
  81.7567628 113.2953668  45.0153350  82.3007532 113.9083627  44.5208305
  81.1754473 113.8533247  45.5320363  68.1339062 104.6967122  29.3417970
  68.4292503 103.7877801  29.2885023  67.2327098 104.6754862  29.0198972
  80.0425141 116.4174386  36.1468378  79.9176281 115.6164126  35.6379324
  80.7004232 116.9120580  35.6582348  71.6633309 102.7723119  35.3245518
  70.9419895 103.3859086  35.1852992  72.4526565 103.3080884  35.2462164
  82.1060050 114.2183406  37.7747928  81.1590385 114.0988758  37.7026255
  82.4542823 113.3305904  37.8574190  74.4659623 100.1077545  41.5986170
  74.9894025 100.3539842  42.3612479  74.2471956 100.9397580  41.1789307
  69.8626904 102.3781220  29.4657295  69.5339610 101.4978599  29.2832401
  70.2166275 102.3228889  30.3533684  79.1106483 114.0136123  33.9752280
  78.9631445 113.0852830  34.1559850  79.9359976 114.0356213  33.4909356
  72.9768727 102.6654190  29.8332773  73.3164800 103.1940111  29.1111381
  73.4240848 103.0034596  30.6091339  82.7140605 114.8364681  35.0617153
  83.6387152 114.6307543  34.9241604  82.5455908 114.5881082  35.9706495
  75.6712168 101.0491240  39.2835841  75.3308988 100.2499053  39.6856520
  74.9651174 101.3492951  38.7112674  76.3228640  98.1340553  37.7363164
  77.1454709  97.6601031  37.6142054  76.5666703  98.9131037  38.2361850
  74.9636874 101.1628811  28.0326065  75.6845237 101.5410064  27.5289782
  74.3402178 101.8817688  28.1361043  79.1067997 101.8673960  28.9684398
  79.3231612 102.7498598  28.6673226  78.6262064 101.4760174  28.2390040
  73.8467218 104.8259673  35.5455142  73.7011799 105.1399977  36.4379424
  73.3692422 105.4444574  34.9926041  75.7063601 101.8162221  35.5936032
  75.6925170 100.9203315  35.2568330  76.4236029 101.8232885  36.2274318
  77.5589732 102.2499562  37.6389159  77.3007510 103.1716632  37.6373490
  77.0274772 101.8529996  38.3289623  82.5035921 115.3550349  30.4179245
  82.6772798 114.7896771  29.6653097  82.9964812 116.1551244  30.2358735
  68.3212881 107.3665018  38.4842803  67.7766349 108.1424826  38.6163078
  69.1992231 107.7135822  38.3261925  75.1100497 100.6976602  30.8623602
  75.2316409  99.7693248  31.0614489  74.8202540 100.7115288  29.9501917
  77.9791688  98.3831512  33.9990322  78.0013385  98.4470845  33.0442301
  78.3959747  97.5436021  34.1930828  88.3575312 108.1186772  32.0369544
  88.8006458 107.3694097  31.6388668  87.4801822 108.1096908  31.6543276
  83.4911093 114.6717113  27.5176143  84.1861998 115.2923806  27.7363457
  83.8334243 113.8212464  27.7928521  69.1078903 106.4934914  41.3772960
  68.3660639 106.6417549  41.9637591  68.7871647 106.7543180  40.5139710
  85.3902516 112.1216819  29.0463474  85.9153841 112.4604091  28.3212794
  85.3024869 111.1863834  28.8626608  77.0522565 116.0350892  41.1753350
  77.3609692 115.7900039  42.0476050  77.8498047 116.2397531  40.6872220
  77.0743177 118.1888802  33.4058727  76.6348168 117.6965181  34.0991584
  77.8251294 117.6461770  33.1650802  69.5535516 114.3800343  33.4083355
  70.3793536 114.0804115  33.0281998  69.2029568 113.6107965  33.8573144
  74.5217049 113.7326811  35.4781028  73.8997059 113.0697516  35.1783256
  75.1921916 113.7587943  34.7954676  67.7544121 112.2986669  34.3672288
  66.9176030 111.8708844  34.1856290  67.7267767 112.4919113  35.3043080
  74.5941577 102.2108599  45.0713535  74.6429732 103.0870722  44.6891304
  75.1364091 101.6685992  44.4985178  85.0796423 112.7549722  44.3514672
  84.2891966 112.7373861  43.8119171  84.8429777 113.2938016  45.1063708
  85.1994298 109.6042189  41.6647400  85.2492303 109.4392196  42.6062923
  85.0908221 108.7369448  41.2745281  74.0830556 112.2830734  28.9539489
  74.2318677 112.9666199  28.3006162  74.8897000 112.2635824  29.4688945
  82.4898060 105.5873117  42.9806707  83.3907923 105.4479582  42.6890705
  82.5646034 105.7527572  43.9204884  76.8240865 102.9639971  41.8259893
  75.9544175 103.2573538  41.5542482  77.0600346 103.5480416  42.5467157
  86.7012494 112.0239130  41.9089422  86.4097303 112.3869111  42.7452883
  86.0884626 111.3106138  41.7302754  87.9008177 109.5892010  34.4291992
  88.7355068 110.0281814  34.5929552  88.0367306 109.1130663  33.6100238
  84.9499683 107.1471745  40.3769480  85.4253804 107.3399391  39.5688331
  84.0265248 107.2030931  40.1312863  71.8383189 108.3095912  29.9600558
  71.5929231 107.4058242  30.1580768  72.0079104 108.3113062  29.0180036
  79.5279899  99.1819588  39.3425314  80.0461843  99.9180615  39.0171802
  79.1735032  99.4883582  40.1772073  71.1078837 104.0424270  27.4586719
  70.4148082 104.1168625  26.8026755  70.8630589 103.2784613  27.9808236
  79.7792493  95.6019871  34.8626210  80.0594247  94.9343060  35.4886637
  80.5643100  95.7948967  34.3500874  77.5825962 114.7778865  26.4251236
  77.0099929 115.3969052  25.9721708  78.1558755 115.3278227  26.9591158
  83.6501352 104.0237505  38.6097785  84.6018775 104.1235603  38.6310009
  83.4804802 103.2315773  39.1195870  81.6715731 101.1093088  38.7957186
  81.0765663 101.3898101  38.1003675  81.3865428 101.5986989  39.5673927
  80.8023222 115.0616015  27.5559819  81.7353895 114.9961577  27.7592694
  80.7146434 115.8972282  27.0974351  86.1289429 107.2443625  37.7240085
  86.0965750 106.3059625  37.9099769  86.7390053 107.3227661  36.9905910
  77.9672760 106.1139678  23.7667289  78.9131865 105.9845886  23.8355707
  77.5887005 105.3754339  24.2436717  86.2783918 104.0354668  37.7698368
  85.7622967 103.2513125  37.5828297  87.1623866 103.7073385  37.9344888
  83.9394645  97.7795684  33.7294181  83.7419466  97.4710772  34.6137513
  84.5494350  98.5057323  33.8592111  91.9465979 108.3059631  36.8646122
  92.6769368 108.0444920  37.4253825  91.3372925 107.5688353  36.9048190
  90.0281276 106.4467494  37.4620573  89.3014440 106.3123459  36.8537064
  89.6128563 106.7544323  38.2677291  77.8511453 110.1657424  45.2267946
  78.7714462 110.3436023  45.4207992  77.8161036 109.2213469  45.0747645
  76.1515677 104.0389654  23.7022174  75.2447133 103.7422767  23.7784888
  76.4291658 103.7419472  22.8356460  67.0693618 105.3596017  34.1521221
  66.7496402 104.5061326  33.8595595  66.5227046 105.5744596  34.9079188
  70.8473525 108.0758458  37.8690727  71.0659535 109.0075566  37.8878761
  71.2599299 107.7166433  38.6545531  77.7677743  98.5826544  29.8566415
  76.9578471  98.2373629  30.2321662  78.4562160  98.2734087  30.4454027
  79.6968291  97.6604591  31.4790712  80.2499330  98.0800044  32.1380735
  79.9338378  96.7340339  31.5213668  75.7201391 103.6491664  47.2593476
  75.6198118 104.5986021  47.1905567  75.5022933 103.3209903  46.3869546
  74.9214462 100.8976589  23.8434153  75.7833626 101.2231488  24.1029971
  75.1064806 100.1108085  23.3307219  66.9381878 108.9798929  36.1214342
  66.2445349 108.5652882  35.6084297  67.6854869 109.0219465  35.5247761
  83.0747099  99.7705116  30.9869376  82.4945768 100.4289920  30.6047429
  82.8083031  98.9482460  30.5756794  81.5250665  99.1710173  33.1890697
  82.0250443  99.2826708  32.3805016  82.1686273  98.8671226  33.8291505
  75.5832661 107.0788803  46.0758538  75.0999742 107.8789163  46.2822427
  75.6693600 107.0896748  45.1225982  68.8518620 108.9117183  33.9980357
  68.8289308 109.0104870  33.0462240  69.1619257 109.7582333  34.3197523
  71.5105998 110.9693338  38.1126971  72.4649252 110.9377280  38.0456903
  71.3118522 110.5083961  38.9277197  72.1005380 109.5394454  40.6797769
  72.9198269 110.0338532  40.7032606  72.3742188 108.6226422  40.6515337
  81.8571977 101.9305206  30.0425725  80.9697832 102.2154857  29.8245919
  82.2725966 101.7698969  29.1953002  85.2086513 101.9551727  33.7580064
  85.9846903 102.4448179  34.0304681  84.4834647 102.3809781  34.2151933
  87.6459071 102.6679346  34.8154004  88.2403562 102.4275082  34.1047313
  87.7185655 101.9486477  35.4427541  69.8656227 116.5112957  35.1297169
  69.7310695 115.7513358  34.5635167  69.4488289 117.2353857  34.6625958
  81.0015190 111.6949881  24.1373745  81.7051040 111.8999883  24.7531400
  80.2777839 112.2626643  24.4022828  81.8313000 107.4459742  30.2576015
  81.7748202 107.9028293  29.4183647  82.3841343 106.6850427  30.0798858
  85.6417806 103.2349474  31.0826134  85.3854740 102.8346110  31.9134342
  85.0170674 103.9493268  30.9576273  89.9530144 105.9745547  33.5897426
  89.3929702 106.0438736  34.3628988  89.3473647 105.7986532  32.8696922
  73.0225353 117.4082274  35.3415612  72.9057737 118.3527707  35.2394302
  72.2017799 117.1055836  35.7301411  82.9101887 112.1332410  26.1872205
  83.7447491 111.7013608  26.0049679  82.7486230 111.9614424  27.1149099
  82.5647780 108.6364523  27.5528544  82.5096583 108.4708795  26.6116988
  81.9393835 109.3440556  27.7090734  67.3540295 103.8732588  41.3789966
  67.9999158 103.3631542  41.8677191  67.1457446 104.6101269  41.9533391
  79.8793687 110.9413435  46.8782107  80.7484846 111.1154087  46.5168742
  79.4000438 111.7607852  46.7557836  75.8743905  98.1372632  27.1313862
  75.8622575  99.0814472  27.2882133  76.7667327  97.9542778  26.8373324
  74.0479867 118.0610536  38.5571540  74.9507114 118.0934146  38.8738035
  73.8217237 117.1310987  38.5717876  75.8033469 116.8141523  35.2181619
  74.8529100 116.8143384  35.1045991  76.1065955 116.0674257  34.7017654
  79.6896025  94.7315409  31.3859799  78.9228420  94.1773896  31.5316482
  80.1006730  94.8037278  32.2473951  71.6937786 101.0200205  45.4764980
  72.5569247 100.6637010  45.6868305  71.1203196 100.6814099  46.1640385
  91.5386163 122.6502061  36.2827381  92.1764572 122.5308808  35.5790721
  91.4207005 123.5982905  36.3415334  88.3475869 122.6029489  36.2188906
  88.0094380 122.4870554  35.3309441  89.2165637 122.2020654  36.1989912
  88.8295652 123.7564341  42.1775112  88.8184293 123.3617139  41.3055615
  88.9916291 123.0230413  42.7708883  81.7527116 125.9516157  35.0470018
  82.5448408 125.6106982  34.6316317  81.9923767 126.0611132  35.9672171
  85.5502913 126.5401453  41.1254296  85.2592779 127.4447084  41.0100962
  86.1859897 126.5817980  41.8398365  86.4759120 123.9178301  37.7155655
  87.0722692 123.6934324  37.0012618  86.5334091 123.1763047  38.3181103
  91.0927431 120.3753515  33.3580589  91.8790520 119.9572938  33.0071006
  91.3566135 121.2799607  33.5262238  94.0161278 114.0250322  38.7208177
  93.6844603 114.8945733  38.4969392  93.4206892 113.7086606  39.4002207
  90.5092798 126.2262868  38.1204089  90.2093521 127.1287907  38.0119897
  90.1643858 125.9595051  38.9725242  83.9605279 122.6776665  34.1540794
  83.0355776 122.5452879  34.3618485  84.2089693 123.4570884  34.6510736
  93.9089942 118.7445408  35.8001527  93.0006819 118.6760817  35.5060288
  93.8577538 119.2217353  36.6283352  81.3214091 122.3209939  34.9884583
  81.4506472 122.5744417  35.9023994  80.6411542 122.9137647  34.6689238
  87.9830808 120.1635054  43.7436424  87.2064142 120.7228974  43.7339289
  88.6221371 120.6491837  44.2651294  95.7751588 116.9461847  37.5779401
  95.1325968 117.2394380  36.9319195  95.2706517 116.8314767  38.3832597
  86.2377180 122.9720507  43.3054391  86.9791864 123.5105551  43.0289214
  85.5314165 123.5986796  43.4625943  91.7132520 125.1149648  41.9026552
  92.1215876 124.6732058  41.1581185  90.9909781 124.5402275  42.1560745
  88.0663590 120.0522255  39.2760109  88.9124785 120.4761668  39.4194758
  88.0062227 119.3955879  39.9698672  91.2163035 117.7126623  40.9341283
  90.9723967 118.4668683  40.3975559  91.4922965 118.0911971  41.7688530
  93.1701498 124.2565235  39.6118549  93.3818393 124.8996995  38.9352930
  93.1231246 123.4227552  39.1440479  90.7727727 116.8683056  36.5155121
  89.9112206 117.1664309  36.8071858  90.7990161 117.0853455  35.5836153
  84.4813377 124.9596728  35.8608690  85.0514734 125.3883996  35.2226174
  85.0721489 124.6779313  36.5592875  84.9738544 120.1260155  44.1069701
  84.3437204 120.8076436  44.3405098  84.8674632 120.0143237  43.1622839
  80.2683516 119.7931952  35.0335625  79.4782570 120.0489480  34.5575736
  80.7594763 120.6080289  35.1387666  82.2198261 120.1576531  31.9919102
  81.4229425 120.2695225  32.5102597  81.9923854 120.4963183  31.1259992
  88.0503929 126.6821234  39.9401616  88.1148362 127.1441641  40.7759788
  87.3414853 126.0518599  40.0683926  78.5521219 120.0462442  37.4650616
  78.8029257 120.9309452  37.7308192  79.0880767 119.8667043  36.6925708
  84.2519286 114.4280921  46.4694952  83.8586232 113.8747120  47.1442596
  85.0685427 114.7391500  46.8601469  87.1687247 115.8438800  44.0615208
  87.9096961 116.4445954  43.9819671  87.4005170 115.1016438  43.5033251
  82.3128585 121.0295168  42.3393438  82.1982101 120.1280425  42.6400537
  81.4573103 121.2758864  41.9878255  84.1507544 130.5008710  38.4641617
  84.7014969 130.3725773  37.6918611  83.3119020 130.8003599  38.1136510
  87.9474715 126.7659837  42.8085848  88.4803052 126.0048126  42.5785156
  87.4188796 126.4733489  43.5510003  91.1144410 111.8719903  38.3379490
  90.7708680 112.7621545  38.2618601  91.4823373 111.6821561  37.4749075
  79.1830261 124.1953434  31.1568092  80.0205483 124.6050442  30.9401800
  79.3608529 123.2552876  31.1268286  88.6641804 116.7078215  31.9037164
  87.8083400 116.3185066  31.7242802  89.0768756 116.7870176  31.0436949
  90.1940951 114.2424559  36.3028723  89.6905746 114.2054694  35.4896529
  90.4871558 115.1517301  36.3625380  86.4383837 114.3263288  35.3094905
  87.3036833 114.1306097  34.9500795  86.5061345 114.0973640  36.2364262
  84.0446156 116.5565496  32.6811272  84.6189908 116.3340678  31.9484465
  84.6317138 116.6254191  33.4339873  86.3468823 113.4306745  31.4086341
  85.6933236 113.1155762  30.7842956  86.3049298 112.8082486  32.1346164
  89.5806564 119.9188679  35.7333989  88.6629125 120.1403626  35.5755677
  89.9966707 119.9934989  34.8745696  92.9132076 111.1313463  33.4397228
  93.2190953 110.2710826  33.1523143  93.6384681 111.7231083  33.2396222
  79.2056432 121.5344149  31.8278826  79.0080832 120.9413510  31.1029892
  78.6503096 121.2296359  32.5454765  87.1853156 121.4267256  33.9473419
  87.2401765 120.4741092  33.8715896  86.3744358 121.5826695  34.4314717
  85.1245516 120.0444315  31.7063798  84.3113381 120.3438486  32.1128990
  85.6204510 119.6500004  32.4238280  90.7219727 120.5086140  40.5378692
  91.0769115 120.7357613  41.3973157  91.3691859 120.8404517  39.9155947
  84.6159590 117.6162671  37.3225033  85.2558970 117.4751430  36.6247996
  83.7837121 117.3297184  36.9463635  81.6188207 117.5862996  32.0998020
  81.8795024 118.5008329  31.9907180  82.4405379 117.1187438  32.2494632
  83.0913132 119.0000753  39.2696844  83.7636186 118.7918115  38.6209493
  82.2642919 118.8022839  38.8302076  88.9938704 115.6262694  41.2862505
  88.3466619 116.3252644  41.1926981  89.7639720 116.0598838  41.6538753
  89.1702839 123.4643459  39.3459325  90.0994899 123.6154618  39.1728292
  88.7493869 123.5527480  38.4907971  87.9691170 127.4894123  37.1157862
  87.8302256 127.1212908  37.9883800  87.1805767 128.0041763  36.9441820
  83.4940629 122.2743356  40.0299281  83.3560427 121.5423595  40.6310820
  84.4045553 122.1852256  39.7483469  86.1222930 121.9863315  39.5182961
  86.8322549 121.3456508  39.4769579  86.0792238 122.2376210  40.4409142
  84.8351864 118.9728533  41.3378600  84.2989221 118.5219272  41.9900197
  84.2468572 119.1074442  40.5949065  75.7656263 123.2194344  33.9946571
  76.4527303 122.9056074  33.4067586  75.6104392 124.1235709  33.7213823
  80.5690985 118.1084541  38.4231595  80.4849174 117.5010210  37.6882005
  79.7473692 118.5993559  38.4241091  90.7414699 116.5938104  33.7901790
  91.2383399 115.8408067  33.4702860  89.9701681 116.6302421  33.2244999
  87.3249668 118.7355487  33.5173475  86.9547455 118.1826528  34.2054380
  87.8208760 118.1313621  32.9648475  85.1538866 129.1952982  40.6128492
  85.8548326 129.8289465  40.7657887  84.6833981 129.5367714  39.8524132
  93.1833694 113.5607698  35.9381149  92.2696774 113.7911925  36.1063356
  93.6126795 113.6446142  36.7895181  92.9540152 121.7497590  38.4381043
  92.3011603 121.9973497  37.7833496  93.3320532 120.9361728  38.1043520
  89.0027725 122.4917401  44.9247080  88.3268362 122.3911530  45.5949455
  89.8255359 122.3356615  45.3883077  80.7506585 128.7289337  37.5459595
  81.3360021 127.9833025  37.6787499  80.5531423 129.0393294  38.4296259
  75.3424239 121.2994938  36.2664038  75.3808339 120.7658528  37.0601156
  74.8364532 120.7730143  35.6475015  82.7215002 116.1459478  39.7626581
  82.7856328 117.0074309  39.3503978  82.6582122 115.5333480  39.0298939
  82.1967274 118.2182611  43.4099615  82.8239313 117.8359688  44.0237139
  81.3395193 117.9996813  43.7755307  78.9732817 120.0259040  29.3417970
  79.2686258 119.1169718  29.2885023  78.0720853 120.0046779  29.0198972
  82.5027064 118.1015036  35.3245518  81.7813650 118.7151004  35.1852992
  83.2920320 118.6372801  35.2462164  85.3053377 115.4369463  41.5986170
  85.8287779 115.6831759  42.3612479  85.0865711 116.2689498  41.1789307
  80.7020658 117.7073138  29.4657295  80.3733365 116.8270516  29.2832401
  81.0560029 117.6520806  30.3533684  83.8162482 117.9946107  29.8332773
  84.1558554 118.5232029  29.1111381  84.2634602 118.3326513  30.6091339
  86.5105922 116.3783158  39.2835841  86.1702743 115.5790971  39.6856520
  85.8044929 116.6784869  38.7112674  87.1622394 113.4632470  37.7363164
  87.9848464 112.9892949  37.6142054  87.4060458 114.2422954  38.2361850
  84.6860973 120.1551591  35.5455142  84.5405554 120.4691894  36.4379424
  84.2086177 120.7736491  34.9926041  86.5457356 117.1454139  35.5936032
  86.5318925 116.2495232  35.2568330  87.2629784 117.1524803  36.2274318
  88.3983487 117.5791479  37.6389159  88.1401264 118.5008550  37.6373490
  87.8668527 117.1821914  38.3289623  79.1606635 122.6956936  38.4842803
  78.6160103 123.4716743  38.6163078  80.0385985 123.0427740  38.3261925
  85.9494252 116.0268519  30.8623602  86.0710163 115.0985166  31.0614489
  85.6596294 116.0407205  29.9501917  88.8185442 113.7123430  33.9990322
  88.8407139 113.7762763  33.0442301  89.2353501 112.8727938  34.1930828
  79.9472657 121.8226832  41.3772960  79.2054393 121.9709467  41.9637591
  79.6265401 122.0835097  40.5139710  78.5937876 127.6278587  34.3672288
  77.7569784 127.2000761  34.1856290  78.5661521 127.8211030  35.3043080
  85.4335331 117.5400517  45.0713535  85.4823487 118.4162640  44.6891304
  85.9757846 116.9977910  44.4985178  93.3291814 120.9165034  42.9806707
  94.2301677 120.7771499  42.6890705  93.4039789 121.0819489  43.9204884
  87.6634620 118.2931889  41.8259893  86.7937929 118.5865455  41.5542482
  87.8994100 118.8772334  42.5467157  95.7893437 122.4763663  40.3769480
  96.2647559 122.6691309  39.5688331  94.8659003 122.5322848  40.1312863
  90.3673654 114.5111506  39.3425314  90.8855597 115.2472533  39.0171802
  90.0128786 114.8175499  40.1772073  90.6186248 110.9311789  34.8626210
  90.8988002 110.2634978  35.4886637  91.4036855 111.1240884  34.3500874
  94.4895106 119.3529423  38.6097785  95.4412529 119.4527520  38.6310009
  94.3198557 118.5607691  39.1195870  92.5109486 116.4385006  38.7957186
  91.9159418 116.7190019  38.1003675  92.2259182 116.9278907  39.5673927
  97.1177672 119.3646586  37.7698368  96.6016721 118.5805042  37.5828297
  98.0017621 119.0365302  37.9344888  94.7788399 113.1087601  33.7294181
  94.5813220 112.8002689  34.6137513  95.3888105 113.8349240  33.8592111
  88.6905207 125.4949341  45.2267946  89.6108217 125.6727940  45.4207992
  88.6554790 124.5505387  45.0747645  77.9087372 120.6887935  34.1521221
  77.5890157 119.8353243  33.8595595  77.3620801 120.9036513  34.9079188
  81.6867280 123.4050376  37.8690727  81.9053290 124.3367484  37.8878761
  82.0993054 123.0458350  38.6545531  88.6071498 113.9118461  29.8566415
  87.7972226 113.5665546  30.2321662  89.2955915 113.6026005  30.4454027
  90.5362046 112.9896508  31.4790712  91.0893085 113.4091962  32.1380735
  90.7732132 112.0632256  31.5213668  86.5595145 118.9783582  47.2593476
  86.4591872 119.9277939  47.1905567  86.3416687 118.6501821  46.3869546
  77.7775632 124.3090847  36.1214342  77.0839104 123.8944799  35.6084297
  78.5248623 124.3511383  35.5247761  92.3644419 114.5002091  33.1890697
  92.8644198 114.6118626  32.3805016  93.0080027 114.1963144  33.8291505
  86.4226415 122.4080721  46.0758538  85.9393497 123.2081081  46.2822427
  86.5087354 122.4188666  45.1225982  79.6912375 124.2409100  33.9980357
  79.6683063 124.3396788  33.0462240  80.0013011 125.0874251  34.3197523
  82.3499753 126.2985255  38.1126971  83.3043006 126.2669198  38.0456903
  82.1512276 125.8375879  38.9277197  82.9399135 124.8686371  40.6797769
  83.7592024 125.3630450  40.7032606  83.2135943 123.9518340  40.6515337
  96.0480267 117.2843645  33.7580064  96.8240657 117.7740097  34.0304681
  95.3228401 117.7101699  34.2151933  78.1934049 119.2024505  41.3789966
  78.8392913 118.6923459  41.8677191  77.9851200 119.9393187  41.9533391
  90.5289779 110.0607327  31.3859799  89.7622175 109.5065813  31.5316482
  90.9400484 110.1329195  32.2473951  82.5331540 116.3492122  45.4764980
  83.3963002 115.9928927  45.6868305  81.9596951 116.0106017  46.1640385
  24.3557897  14.0023525  30.6626245  23.9121752  13.2159903  30.3447150
  25.0175111  14.1902675  29.9970136  26.4539136  14.2826324  28.6907647
  26.4357611  15.1035205  28.1987916  27.3759056  14.1580400  28.9157788
  27.3654976  10.9222163  31.0858365  27.2140483  10.6932714  30.1688449
  27.3559656  11.8792764  31.0989710  29.0747183  13.9541285  29.1634847
  29.0159729  13.2700505  28.4965430  29.4766701  14.6960275  28.7115473
  27.5598857  13.6556202  31.7398657  28.1038761  14.2686161  31.2453612
  26.9785702  14.2135781  32.2565670  30.8827651  13.1152257  31.0759978
  30.0923195  13.0976395  30.5364478  30.6461006  13.6540550  31.8309015
  32.5043723  12.3841664  28.6334728  32.2128532  12.7471645  29.4698189
  31.8915854  11.6708673  28.4548060  25.6824916  11.3015969  33.6027413
  26.5516075  11.4756622  33.2414048  25.2031667  12.1210386  33.4803143
  37.3417391  23.0104595  23.0072688  37.9795801  22.8911343  22.3036028
  37.2238234  23.9585439  23.0660640  34.1507098  22.9632023  22.9434213
  33.8125609  22.8473088  22.0554748  35.0196866  22.5623188  22.9235219
  34.6326881  24.1166875  28.9020418  34.6215521  23.7219673  28.0300922
  34.7947520  23.3832948  29.4954190  27.5558345  26.3118691  21.7715324
  28.3479637  25.9709516  21.3561623  27.7954995  26.4213666  22.6917477
  31.3534142  26.9003987  27.8499602  31.0624008  27.8049618  27.7346269
  31.9891126  26.9420514  28.5643672  32.2790349  24.2780835  24.4400962
  32.8753921  24.0536858  23.7257925  32.3365320  23.5365581  25.0426410
  42.2967087  20.6731282  20.9858875  43.0292259  20.1030499  21.2196704
  41.5406443  20.2852883  21.4265380  39.8192507  14.3852856  25.4453483
  39.4875832  15.2548267  25.2214698  39.2238121  14.0689140  26.1247514
  36.3124027  26.5865402  24.8449396  36.0124750  27.4890441  24.7365203
  35.9675086  26.3197586  25.6970549  39.7121171  19.1047943  22.5246833
  38.8038048  19.0363351  22.2305594  39.6608766  19.5819888  23.3528659
  31.2944807  33.3509723  17.8120364  31.2168836  34.3017548  17.8908844
  30.6906450  33.0055595  18.4695290  33.7862036  20.5237588  30.4681731
  33.0095370  21.0831508  30.4584595  34.4252599  21.0094371  30.9896601
  41.5782817  17.3064381  24.3024707  40.9357197  17.5996914  23.6564502
  41.0737746  17.1917301  25.1077904  32.0408409  23.3323042  30.0299698
  32.7823093  23.8708085  29.7534521  31.3345394  23.9589330  30.1871249
  37.5163748  25.4752182  28.6271859  37.9247104  25.0334593  27.8826491
  36.7941010  24.9004809  28.8806052  33.8694818  20.4124789  26.0005416
  34.7156014  20.8364202  26.1440065  33.8093456  19.7558413  26.6943979
  37.8392563  26.0353373  22.3824148  37.2101425  26.1999087  21.6800216
  37.4518225  26.4494982  23.1535112  41.7181795  26.9707810  19.7368512
  41.0332833  27.3506712  19.1865545  41.8025644  27.5803137  20.4700459
  37.0194264  18.0729157  27.6586590  36.7755196  18.8271218  27.1220865
  37.2954194  18.4514505  28.4933837  38.9732727  24.6167769  26.3363855
  39.1849622  25.2599529  25.6598236  38.9262475  23.7830086  25.8685785
  33.3920525  25.7727781  19.6474233  33.8558870  26.0515484  18.8578855
  33.1277323  24.8711225  19.4647324  30.2844606  25.3199262  22.5853996
  30.8545963  25.7486531  21.9471481  30.8752718  25.0381847  23.2838182
  30.7769772  20.4862690  30.8315008  30.1468433  21.1678971  31.0650404
  30.6705860  20.3745771  29.8868146  40.0878554  27.4939725  24.5086213
  40.9095998  27.0919912  24.2268894  40.0840957  27.3907959  25.4602328
  33.8535158  27.0423768  26.6646923  33.9179590  27.5044175  27.5005095
  33.1446082  26.4121133  26.7929233  48.1784548  23.8378473  20.8571184
  47.4248256  23.2685871  20.7015188  48.3132089  23.8041138  21.8041819
  30.0550515  14.7883456  33.1940259  29.6617461  14.2349654  33.8687903
  30.8716656  15.0994034  33.5846776  28.8307458  29.3433070  19.1876582
  29.0074086  30.2651035  18.9997566  29.6264291  29.0291489  19.6170961
  32.9718476  16.2041335  30.7860515  33.7128190  16.8048488  30.7064978
  33.2036399  15.4618972  30.2278558  28.1159814  21.3897702  29.0638745
  28.0013329  20.4882959  29.3645844  27.2604332  21.6361399  28.7123561
  35.1951652  29.3315442  30.6626245  34.7515506  28.5451821  30.3447150
  35.8568866  29.5194593  29.9970136  29.9538773  30.8611244  25.1886924
  30.5046198  30.7328307  24.4163918  29.1150249  31.1606133  24.8381817
  37.2932890  29.6118242  28.6907647  37.2751365  30.4327123  28.1987916
  38.2152810  29.4872317  28.9157788  33.7505944  27.1262372  29.5331155
  34.2834281  26.3650660  29.3030463  33.2220025  26.8336023  30.2755310
  40.0951503  24.4497385  22.1617013  39.4375177  25.1396646  22.2497142
  40.8991902  24.8393817  22.5051000  38.9056962  22.8041757  20.2120955
  39.4188843  23.4371749  20.7142665  39.5558186  22.2042953  19.8464315
  35.3837793  20.2791213  22.4579296  34.4660354  20.5006160  22.3000984
  35.7997936  20.3537523  21.5991003  39.6718758  27.7847759  18.3400098
  39.2181085  26.9438669  18.3965288  39.0412725  28.4209157  18.6774878
  38.1151697  29.6224255  19.2749916  38.4074672  30.1829313  18.5562282
  38.6250318  29.9152816  20.0303075  33.0785322  30.4004606  20.3643369
  33.0361501  30.6265453  19.4351901  33.9948021  30.1667981  20.5129170
  36.5250956  20.8688674  27.2623998  36.8800344  21.0960147  28.1218464
  37.1723087  21.2007051  26.6401254  42.2548693  23.9907110  17.9673327
  42.1166592  24.1808706  17.0394517  41.8984912  24.7526493  18.4241378
  42.2818073  26.0583637  22.9784599  42.7154579  25.9658926  23.8267653
  42.9949653  26.0341137  22.3404615  31.1951123  27.2767636  20.1605332
  31.9891722  26.7817956  19.9587907  30.4842815  26.7485499  19.7973037
  36.0145968  29.6585731  24.5117699  36.0682990  30.2276667  25.2795415
  35.1460749  29.8287616  24.1471737  28.8944361  19.3603287  25.9942151
  29.5667414  19.1520649  25.3454800  28.0674147  19.1625373  25.5547383
  43.1433622  26.1007338  25.5117484  43.3369512  27.0053148  25.7576759
  43.0434240  25.6414757  26.3456069  34.7969933  15.9865228  28.0107812
  34.1497848  16.6855178  27.9172288  35.5670948  16.4201372  28.3784060
  38.2048731  26.2514080  31.0858365  38.0534237  26.0224632  30.1688449
  38.1953410  27.2084682  31.0989710  34.9734067  23.8245993  26.0704631
  35.9026127  23.9757153  25.8973599  34.5525097  23.9130014  25.2153278
  33.7722399  27.8496657  23.8403169  33.6333485  27.4815442  24.7129107
  32.9836995  28.3644297  23.6687127  34.3670551  32.9505754  15.1828705
  34.5422307  32.4793797  15.9974328  33.6803339  33.5771520  15.4109966
  35.3227614  27.2278260  21.2292007  34.9877447  27.1879030  22.1249657
  34.8231560  26.5622976  20.7562417  29.2971858  22.6345890  26.7544588
  29.1591656  21.9026129  27.3556127  30.2076782  22.5454790  26.4728776
  31.9254159  22.3465850  26.2428268  32.6353777  21.7059042  26.2014886
  31.8823467  22.5978744  27.1654448  39.9140938  29.2833203  29.1634847
  39.8553484  28.5992423  28.4965430  40.3160456  30.0252193  28.7115473
  30.6383093  19.3331067  28.0623907  30.1020450  18.8821806  28.7145503
  30.0499801  19.4676976  27.3194371  28.9331636  36.0995117  21.9568566
  29.1728235  36.7313641  22.6347584  28.0900833  35.7483157  22.2433925
  39.9158345  27.2472787  27.3948826  39.0285124  26.9098709  27.5175225
  40.4856896  26.5155818  27.6317592  33.4459498  31.9074239  24.3610070
  33.3729670  32.7129211  24.8729374  33.0036891  32.1066205  23.5358091
  33.2349278  31.1446009  17.8712891  32.4516800  31.6867689  17.9651116
  33.9342023  31.6619989  18.2707132  44.3975685  22.6581004  22.1565388
  44.3865562  23.5405720  21.7859321  43.5293065  22.3052555  21.9619925
  35.9058182  31.8061073  26.5168228  36.6186154  32.4408538  26.4444130
  35.4148210  31.9024939  25.7008230  37.6275709  25.7112326  18.0885520
  36.6931987  25.8313788  17.9190224  37.8052377  24.8084793  17.8245530
  41.0148260  21.5529645  18.6235554  41.4808712  22.3857637  18.5495857
  41.4655760  21.0874627  19.3280813  30.9570095  29.5555517  27.3373799
  31.6579555  30.1892000  27.4903193  30.4865210  29.8970248  26.5769438
  38.7571381  22.1100124  25.1626349  38.1042831  22.3576032  24.5078802
  39.1351761  21.2964262  24.8288827  35.7178555  32.1459817  19.2654520
  35.9000950  31.3281473  19.7282272  36.5411541  32.3627510  18.8279410
  36.0520721  31.0728002  16.5269568  36.5808487  30.5620457  15.9139730
  36.3148940  30.7570533  17.3915101  34.8058954  22.8519935  31.6492387
  34.1299591  22.7514065  32.3194762  35.6286588  22.6959149  32.1128384
  26.5537813  29.0891872  24.2704902  27.1391250  28.3435560  24.4032806
  26.3562652  29.3995828  25.1541566  29.4076469  32.1243119  19.2867344
  28.7386844  32.6089247  18.8031384  29.2689338  32.3712340  20.2010723
  33.5481737  34.1586863  25.8850003  34.1000045  34.3218484  26.6499088
  33.8887931  34.7491300  25.2130027  27.9998503  18.5785145  30.1344921
  28.6270542  18.1962222  30.7482446  27.1426422  18.3599347  30.5000614
  38.3992611  28.9848120  31.7398657  38.9432515  29.5978078  31.2453612
  37.8179456  29.5427699  32.2565670  36.6850124  32.1068838  22.8713685
  36.5601264  31.3058578  22.3624630  37.3429216  32.6015032  22.3827655
  38.7485033  29.9077858  24.4993235  37.8015368  29.7883209  24.4271562
  39.0967806  29.0200356  24.5819496  31.1084606  15.7971997  28.3231477
  31.6319008  16.0434294  29.0857786  30.8896939  16.6292032  27.9034614
  35.7531466  29.7030574  20.6997587  35.6056429  28.7747282  20.8805157
  36.5784960  29.7250665  20.2154662  39.3565588  30.5259133  21.7862460
  40.2812135  30.3201995  21.6486911  39.1880891  30.2775534  22.6951801
  32.3137151  16.7385692  26.0081147  31.9733972  15.9393505  26.4101827
  31.6076157  17.0387403  25.4357980  34.2014715  17.9394014  24.3634466
  33.9432493  18.8611084  24.3618796  33.6699756  17.5424448  25.0534930
  39.1460904  31.0444801  17.1424551  39.3197782  30.4791223  16.3898404
  39.6389795  31.8445696  16.9604041  24.9637864  23.0559470  25.2088110
  24.4191332  23.8319278  25.3408384  25.8417214  23.4030274  25.0507231
  45.0000295  23.8081224  18.7614851  45.4431441  23.0588549  18.3633974
  44.1226806  23.7991360  18.3788583  40.1336077  30.3611565  14.2421449
  40.8286981  30.9818258  14.4608764  40.4759227  29.5106916  14.5173827
  25.7503886  22.1829366  28.1018267  25.0085622  22.3312001  28.6882897
  25.4296630  22.4437632  27.2385016  42.0327500  27.8111271  15.7708780
  42.5578824  28.1498543  15.0458100  41.9449852  26.8758286  15.5871915
  33.6947548  31.7245344  27.8998657  34.0034675  31.4794491  28.7721356
  34.4923030  31.9291983  27.4117527  33.7168161  33.8783254  20.1304033
  33.2773151  33.3859633  20.8236890  34.4676277  33.3356222  19.8896109
  26.1960499  30.0694795  20.1328662  27.0218519  29.7698567  19.7527305
  25.8454551  29.3002417  20.5818450  31.1642033  29.4221263  22.2026335
  30.5422042  28.7591968  21.9028563  31.8346900  29.4482395  21.5199983
  31.2366560  17.9003051  31.7958841  31.2854716  18.7765174  31.4136611
  31.7789074  17.3580444  31.2230484  41.7221406  28.4444174  31.0759978
  40.9316950  28.4268313  30.5364478  41.4854760  28.9832468  31.8309015
  41.8419281  25.2936641  28.3892707  41.8917286  25.1286648  29.3308230
  41.7333204  24.4263900  27.9990588  39.1323043  21.2767569  29.7052013
  40.0332906  21.1374033  29.4136011  39.2071018  21.4422023  30.6450191
  33.4665849  18.6534423  28.5505200  32.5969158  18.9467989  28.2787788
  33.7025329  19.2374868  29.2712463  43.3437478  27.7133582  28.6334728
  43.0522286  28.0763563  29.4698189  42.7309609  27.0000590  28.4548060
  44.5433160  25.2786462  21.1537299  45.3780051  25.7176266  21.3174859
  44.6792289  24.8025115  20.3345544  41.5924666  22.8366197  27.1014786
  42.0678788  23.0293843  26.2933638  40.6690231  22.8925383  26.8558170
  36.1704882  14.8714040  26.0670620  36.6886826  15.6075067  25.7417109
  35.8160015  15.1778034  26.9017379  40.2926335  19.7131957  25.3343092
  41.2443758  19.8130054  25.3555316  40.1229785  18.9210225  25.8441176
  38.3140714  16.7987540  25.5202493  37.7190647  17.0792553  24.8248981
  38.0290411  17.2881441  26.2919234  42.7714413  22.9338077  24.4485392
  42.7390733  21.9954077  24.6345075  43.3815036  23.0122113  23.7151216
  42.9208901  19.7249120  24.4943675  42.4047950  18.9407577  24.3073604
  43.8048850  19.3967837  24.6590194  48.5890963  23.9954083  23.5891428
  49.3194351  23.7339371  24.1499132  47.9797908  23.2582805  23.6293496
  46.6706260  22.1361946  24.1865880  45.9439423  22.0017911  23.5782371
  46.2553547  22.4438775  24.9922598  34.4936436  25.8551876  31.9513253
  35.4139446  26.0330475  32.1453299  34.4586019  24.9107921  31.7992952
  27.4898509  23.7652910  24.5936034  27.7084518  24.6970018  24.6124068
  27.9024282  23.4060885  25.3790838  32.3626374  19.3386116  33.9838783
  32.2623101  20.2880473  33.9150874  32.1447916  19.0104355  33.1114853
  32.2257644  22.7683255  32.8003844  31.7424726  23.5683615  33.0067733
  32.3118583  22.7791200  31.8471288  28.1530982  26.6587790  24.8372278
  29.1074235  26.6271732  24.7702210  27.9543505  26.1978413  25.6522504
  28.7430364  25.2288906  27.4043076  29.5623253  25.7232984  27.4277913
  29.0167171  24.3120874  27.3760643  41.8511496  17.6446179  20.4825370
  42.6271886  18.1342631  20.7549987  41.1259630  18.0704233  20.9397240
  44.2884055  18.3573798  21.5399311  44.8828545  18.1169534  20.8292619
  44.3610638  17.6380929  22.1672847  26.5081210  32.2007409  21.8542476
  26.3735678  31.4407810  21.2880474  26.0913273  32.9248309  21.3871265
  46.5955127  21.6639999  20.3142732  46.0354685  21.7333188  21.0874294
  45.9898631  21.4880984  19.5942229  29.6650336  33.0976726  22.0660919
  29.5482720  34.0422159  21.9639609  28.8442782  32.7950288  22.4546718
  23.9965278  19.5627039  28.1035273  24.6424142  19.0525993  28.5922498
  23.7882429  20.2995721  28.6778698  36.5218670  26.6307887  33.6027413
  37.3909830  26.8048539  33.2414048  36.0425422  27.4502304  33.4803143
  30.6904850  33.7504988  25.2816847  31.5932097  33.7828598  25.5983342
  30.4642220  32.8205439  25.2963183  32.4458452  32.5035975  21.9426926
  31.4954083  32.5037836  21.8291298  32.7490938  31.7568709  21.4262960
  28.3362769  16.7094657  32.2010287  29.1994230  16.3531461  32.4113612
  27.7628180  16.3708551  32.8885691  48.1811146  38.3396513  23.0072688
  48.8189556  38.2203260  22.3036028  48.0631989  39.2877357  23.0660640
  44.9900852  38.2923941  22.9434213  44.6519364  38.1765006  22.0554748
  45.8590620  37.8915106  22.9235219  40.8487668  40.1459417  18.9331104
  40.2852533  40.0549354  18.1647391  40.7340063  39.3259322  19.4133596
  45.4720635  39.4458793  28.9020418  45.4609276  39.0511591  28.0300922
  45.6341275  38.7124865  29.4954190  38.3952100  41.6410609  21.7715324
  39.1873392  41.3001434  21.3561623  38.6348750  41.7505584  22.6917477
  46.4287227  43.8130385  14.2445569  45.7775206  44.3984466  13.8579582
  47.2231589  44.3436580  14.3040606  40.3542854  40.9019522  14.6432703
  41.1273730  40.3548509  14.5045579  40.7068253  41.7663772  14.8547164
  42.1927896  42.2295905  27.8499602  41.9017762  43.1341535  27.7346269
  42.8284881  42.2712432  28.5643672  43.1184103  39.6072753  24.4400962
  43.7147675  39.3828775  23.7257925  43.1759075  38.8657499  25.0426410
  42.6909132  37.0612188  12.2751153  42.9434652  36.5393710  11.5134616
  41.7533691  36.8978334  12.3777836  47.7352414  36.0647967  20.0825896
  48.5215504  35.6467390  19.7316313  47.9991119  36.9694059  20.2507544
  47.9062492  41.5020817  14.7814553  47.2708325  41.5755444  15.4935458
  47.5759898  42.0914416  14.1033632  53.1360841  36.0023200  20.9858875
  53.8686013  35.4322417  21.2196704  52.3800197  35.6144800  21.4265380
  42.4105420  38.9640294  14.4775528  42.2941678  38.2885198  15.1456612
  42.5207680  38.4772668  13.6607681  44.7536961  38.4250441  18.1822217
  44.3895168  37.8981062  18.8935139  45.6104077  38.0348911  18.0088702
  50.6586262  29.7144774  25.4453483  50.3269587  30.5840185  25.2214698
  50.0631875  29.3981058  26.1247514  44.3942448  33.4540341  13.1783566
  44.5616851  34.3220578  13.5454037  44.2039617  33.6167623  12.2544855
  47.1517781  41.9157320  24.8449396  46.8518504  42.8182359  24.7365203
  46.8068841  41.6489503  25.6970549  40.6030263  38.3671117  20.8786100
  39.6780759  38.2347331  21.0863792  40.8514676  39.1465336  21.3756043
  50.5514925  34.4339860  22.5246833  49.6431802  34.3655269  22.2305594
  50.5002521  34.9111805  23.3528659  44.3731669  35.9097999  14.1630232
  44.2531294  36.3555049  15.0015713  43.6784257  36.2583316  13.6043771
  37.9639074  38.0104390  21.7129889  38.0931455  38.2638869  22.6269301
  37.2836525  38.6032098  21.3934544  42.1338561  48.6801640  17.8120364
  42.0562591  49.6309465  17.8908844  41.5300205  48.3347513  18.4695290
  44.6255791  35.8529506  30.4681731  43.8489125  36.4123426  30.4584595
  45.2646354  36.3386289  30.9896601  52.4176572  32.6356299  24.3024707
  51.7750952  32.9288832  23.6564502  51.9131500  32.5209219  25.1077904
  50.0716735  36.3819472  14.9910566  50.9834591  36.6146859  14.8158264
  49.5626382  36.9656516  14.4285645  42.8802163  38.6614959  30.0299698
  43.6216848  39.2000003  29.7534521  42.1739149  39.2881248  30.1871249
  48.3557503  40.8044100  28.6271859  48.7640859  40.3626510  27.8826491
  47.6334764  40.2296727  28.8806052  44.7088573  35.7416706  26.0005416
  45.5549768  36.1656120  26.1440065  44.6487211  35.0850331  26.6943979
  48.6786317  41.3645290  22.3824148  48.0495180  41.5291004  21.6800216
  48.2911980  41.7786900  23.1535112  52.5575549  42.2999728  19.7368512
  51.8726588  42.6798629  19.1865545  52.6419399  42.9095055  20.4700459
  47.8588018  33.4021075  27.6586590  47.6148950  34.1563135  27.1220865
  48.1347949  33.7806422  28.4933837  49.8126481  39.9459687  26.3363855
  50.0243376  40.5891447  25.6598236  49.7656229  39.1122004  25.8685785
  47.4152710  32.5577508  23.2400427  46.5537189  32.8558761  23.5317165
  47.4415145  32.7747907  22.3081460  44.2314279  41.1019698  19.6474233
  44.6952625  41.3807401  18.8578855  43.9671077  40.2003143  19.4647324
  41.1238360  40.6491180  22.5853996  41.6939717  41.0778448  21.9471481
  41.7146472  40.3673765  23.2838182  43.1683165  37.2242851  16.4563798
  43.8707209  37.6763894  16.9237724  42.8363794  36.5826670  17.0843691
  41.6163527  35.8154607  30.8315008  40.9862188  36.4970888  31.0650404
  41.5099615  35.7037689  29.8868146  36.9108499  35.4826403  21.7580932
  36.1207553  35.7383932  21.2821042  37.4019747  36.2974741  21.8632972
  50.9272309  42.8231643  24.5086213  51.7489753  42.4211830  24.2268894
  50.9234712  42.7199877  25.4602328  38.8623245  35.8470983  18.7164408
  38.0654408  35.9589677  19.2347904  38.6348837  36.1857635  17.8505299
  44.6928912  42.3715686  26.6646923  44.7573345  42.8336093  27.5005095
  43.9839836  41.7413051  26.7929233  35.1946202  35.7356894  24.1895922
  35.4454241  36.6203904  24.4553498  35.7305751  35.5561495  23.4171014
  59.0178302  39.1670391  20.8571184  58.2642010  38.5977789  20.7015188
  59.1525843  39.1333056  21.8041819  44.4076930  44.0383793  16.5325903
  44.2722605  44.8835329  16.9610751  44.9486743  44.2403071  15.7691837
  40.8944270  30.1175373  33.1940259  40.5011215  29.5641572  33.8687903
  41.7110410  30.4285952  33.5846776  37.8606327  41.5559231  17.1053828
  38.3730848  42.3502482  17.2559393  38.5129040  40.8585522  17.0387430
  39.6701212  44.6724988  19.1876582  39.8467840  45.5942952  18.9997566
  40.4658046  44.3583407  19.6170961  43.8112231  31.5333252  30.7860515
  44.5521944  32.1340405  30.7064978  44.0430153  30.7910890  30.2278558
  38.9553569  36.7189620  29.0638745  38.8407084  35.8174877  29.3645844
  38.0998086  36.9653316  28.7123561  46.0345406  44.6607360  30.6626245
  45.5909261  43.8743738  30.3447150  46.6962620  44.8486510  29.9970136
  40.7932528  46.1903161  25.1886924  41.3439953  46.0620225  24.4163918
  39.9544004  46.4898050  24.8381817  48.1326644  44.9410160  28.6907647
  48.1145120  45.7619041  28.1987916  49.0546565  44.8164235  28.9157788
  44.5899699  42.4554289  29.5331155  45.1228035  41.6942577  29.3030463
  44.0613780  42.1627941  30.2755310  47.7569394  27.5614355  25.0624797
  47.4133663  28.4515997  24.9863907  48.1248356  27.3716013  24.1994382
  35.8255244  39.8847886  17.8813399  36.6630466  40.2944894  17.6647107
  36.0033512  38.9447328  17.8513593  47.7219676  37.5522966  13.5697232
  47.2066300  38.3227571  13.8085619  47.4496985  36.8788103  14.1930293
  45.3066787  32.3972667  18.6282470  44.4508384  32.0079518  18.4488109
  45.7193739  32.4764628  17.7682256  46.8365934  29.9319010  23.0274030
  46.3330730  29.8949146  22.2141835  47.1296541  30.8411753  23.0870687
  43.0808820  30.0157740  22.0340212  43.9461817  29.8200549  21.6746101
  43.1486329  29.7868092  22.9609569  52.6953950  40.3055321  15.5050405
  51.9183393  39.9666480  15.0605567  53.3745431  40.3107944  14.8305370
  47.5105979  35.4250058  15.3957013  47.2056115  35.7396208  16.2467156
  48.4636422  35.5031478  15.4384346  45.9552411  41.5840282  17.0449967
  45.4273773  40.8493041  16.7323205  45.4539914  42.3614958  16.7989935
  50.9345257  39.7789302  22.1617013  50.2768932  40.4688564  22.2497142
  51.7385657  40.1685734  22.5051000  40.6871139  32.2459948  19.4056579
  41.2614891  32.0235130  18.6729772  41.2742121  32.3148643  20.1585180
  49.7450716  38.1333675  20.2120955  50.2582598  38.7663667  20.7142665
  50.3951940  37.5334870  19.8464315  41.0140726  34.2764409  13.4252464
  40.1778038  34.6139096  13.7461739  40.8745496  34.1413389  12.4879601
  42.9893807  29.1201197  18.1331648  42.3358219  28.8050214  17.5088263
  42.9474281  28.4976937  18.8591471  44.1005012  39.4020492  10.0484940
  43.1932073  39.1709745  10.2476089  44.5976044  38.6058111  10.2358922
  47.0073090  48.1117999  12.9681626  46.3334789  48.4149696  13.5766584
  47.3938912  48.9147080  12.6187083  46.2231547  35.6083130  22.4579296
  45.3054108  35.8298077  22.3000984  46.6391691  35.6829441  21.5991003
  47.0066595  37.0074546  17.5881976  47.7538414  37.5195943  17.2789098
  47.2758184  36.6858599  18.4486369  45.2793245  39.5033087  14.5708930
  44.3704464  39.2192120  14.6681400  45.3088329  39.9232165  13.7112237
  50.5112512  43.1139676  18.3400098  50.0574839  42.2730586  18.3965288
  49.8806479  43.7501075  18.6774878  49.4545432  34.0431662  19.5700765
  48.7168189  33.5309049  19.9011008  49.7072205  33.6032044  18.7584042
  48.9545452  44.9516173  19.2749916  49.2468426  45.5121230  18.5562282
  49.4644072  45.2444734  20.0303075  49.5557059  26.8207914  20.1642534
  49.8615936  25.9605278  19.8768450  50.2809664  27.4125535  19.9641528
  35.8481415  37.2238601  18.5524132  35.6505815  36.6307962  17.8275199
  35.2928079  36.9190811  19.2700071  43.8278139  37.1161707  20.6718726
  43.8826749  36.1635544  20.5961202  43.0169341  37.2721147  21.1560024
  44.9769333  41.0441831  11.9097009  44.5388763  40.3277689  11.4502646
  45.7179774  41.2717945  11.3482100  41.7670499  35.7338767  18.4309104
  40.9538364  36.0332938  18.8374297  42.2629493  35.3394456  19.1483587
  43.9179077  45.7296524  20.3643369  43.8755256  45.9557370  19.4351901
  44.8341776  45.4959899  20.5129170  47.3644711  36.1980592  27.2623998
  47.7194098  36.4252065  28.1218464  48.0116842  36.5298969  26.6401254
  53.0942448  39.3199028  17.9673327  52.9560346  39.5100624  17.0394517
  52.7378666  40.0818410  18.4241378  41.2584574  33.3057123  24.0470339
  41.8983953  33.1645882  23.3493303  40.4262104  33.0191636  23.6708941
  53.1211827  41.3875555  22.9784599  53.5548334  41.2950844  23.8267653
  53.8343408  41.3633055  22.3404615  42.0344878  42.6059553  20.1605332
  42.8285476  42.1109873  19.9587907  41.3236570  42.0777416  19.7973037
  46.8539722  44.9877649  24.5117699  46.9076744  45.5568585  25.2795415
  45.9854503  45.1579534  24.1471737  38.3427641  36.7502635  16.2365085
  37.4125229  36.6887090  16.4535047  38.4385113  36.2278588  15.4401726
  38.2613190  33.2757448  18.8243326  38.5220007  34.1902781  18.7152487
  39.0830362  32.8081890  18.9739939  39.7338115  34.6895205  25.9942151
  40.4061169  34.4812567  25.3454800  38.9067902  34.4917291  25.5547383
  53.9827377  41.4299255  25.5117484  54.1763267  42.3345066  25.7576759
  53.8827995  40.9706674  26.3456069  45.6363687  31.3157146  28.0107812
  44.9891602  32.0147096  27.9172288  46.4064703  31.7493290  28.3784060
  49.0442485  41.5805998  31.0858365  48.8927992  41.3516550  30.1688449
  49.0347165  42.5376599  31.0989710  45.8127822  39.1537911  26.0704631
  46.7419882  39.3049070  25.8973599  45.3918852  39.2421932  25.2153278
  44.6116154  43.1788575  23.8403169  44.4727239  42.8107360  24.7129107
  43.8230750  43.6936215  23.6687127  45.2064306  48.2797672  15.1828705
  45.3816061  47.8085715  15.9974328  44.5197094  48.9063438  15.4109966
  46.1621369  42.5570178  21.2292007  45.8271201  42.5170948  22.1249657
  45.6625314  41.8914894  20.7562417  40.1365613  37.9637808  26.7544588
  39.9985411  37.2318047  27.3556127  41.0470536  37.8746708  26.4728776
  49.0980560  39.9026212  11.5029066  48.4809731  39.1773040  11.4062119
  48.6297049  40.6635572  11.1596141  42.7647913  37.6757767  26.2428268
  43.4747532  37.0350959  26.2014886  42.7217222  37.9270662  27.1654448
  50.7534692  44.6125121  29.1634847  50.6947238  43.9284341  28.4965430
  51.1554210  45.3544111  28.7115473  41.4776847  34.6622985  28.0623907
  40.9414204  34.2113724  28.7145503  40.8893556  34.7968894  27.3194371
  39.7725391  51.4287034  21.9568566  40.0121989  52.0605559  22.6347584
  38.9294587  51.0775074  22.2433925  50.7552099  42.5764705  27.3948826
  49.8678878  42.2390626  27.5175225  51.3250650  41.8447736  27.6317592
  32.4081246  38.9088796  20.7191878  33.0952286  38.5950526  20.1312893
  32.2529375  39.8130161  20.4459129  37.2115969  33.7978993  25.1476901
  37.1274157  33.1904662  24.4127311  36.3898675  34.2888011  25.1486398
  44.2853253  47.2366157  24.3610070  44.2123424  48.0421128  24.8729374
  43.8430646  47.4358123  23.5358091  44.0743032  46.4737927  17.8712891
  43.2910554  47.0159607  17.9651116  44.7735778  46.9911907  18.2707132
  47.3839682  32.2832556  20.5147097  47.8808382  31.5302519  20.1948167
  46.6126664  32.3196873  19.9490306  55.2369440  37.9872922  22.1565388
  55.2259316  38.8697637  21.7859321  54.3686819  37.6344473  21.9619925
  46.7451936  47.1352991  26.5168228  47.4579908  47.7700456  26.4444130
  46.2541965  47.2316857  25.7008230  48.4669463  41.0404244  18.0885520
  47.5325742  41.1605706  17.9190224  48.6446132  40.1376710  17.8245530
  43.9674651  34.4249939  20.2418781  43.5972439  33.8720980  20.9299687
  44.4633744  33.8208073  19.6893781  51.8542014  36.8821563  18.6235554
  52.3202467  37.7149554  18.5495857  52.3049515  36.4166544  19.3280813
  41.7963850  44.8847434  27.3373799  42.4973309  45.5183917  27.4903193
  41.3258965  45.2262166  26.5769438  49.9218246  43.2265384  15.6221706
  50.1978089  43.1121979  16.5315580  49.0522744  42.8282869  15.5833879
  49.8258677  29.2502150  22.6626455  48.9121757  29.4806377  22.8308662
  50.2551779  29.3340594  23.5140488  49.5965136  37.4392042  25.1626349
  48.9436586  37.6867949  24.5078802  49.9745516  36.6256180  24.8288827
  46.5572310  47.4751735  19.2654520  46.7394704  46.6573391  19.7282272
  47.3805296  47.6919427  18.8279410  46.8914475  46.4019920  16.5269568
  47.4202242  45.8912375  15.9139730  47.1542695  46.0862450  17.3915101
  45.6452709  38.1811853  31.6492387  44.9693346  38.0805982  32.3194762
  46.4680343  38.0251067  32.1128384  37.3931568  44.4183789  24.2704902
  37.9785005  43.6727477  24.4032806  37.1956406  44.7287746  25.1541566
  40.2470223  47.4535037  19.2867344  39.5780598  47.9381164  18.8031384
  40.1083093  47.7004257  20.2010723  31.9849223  36.9889390  22.9909345
  32.0233322  36.4552980  23.7846463  31.4789515  36.4624595  22.3720322
  44.3875492  49.4878780  25.8850003  44.9393800  49.6510402  26.6499088
  44.7281685  50.0783218  25.2130027  39.3639985  31.8353930  26.4871887
  39.4281311  32.6968761  26.0749285  39.3007105  31.2227932  25.7544246
  38.8392257  33.9077063  30.1344921  39.4664296  33.5254140  30.7482446
  37.9820176  33.6891265  30.5000614  49.2386366  44.3140038  31.7398657
  49.7826270  44.9269996  31.2453612  48.6573211  44.8719616  32.2565670
  35.6157800  35.7153492  16.0663276  35.9111241  34.8064170  16.0130330
  34.7145836  35.6941231  15.7444279  47.5243879  47.4360756  22.8713685
  47.3995018  46.6350496  22.3624630  48.1822970  47.9306949  22.3827655
  39.1452047  33.7909488  22.0490825  38.4238633  34.4045456  21.9098298
  39.9345303  34.3267253  21.9707471  49.5878787  45.2369776  24.4993235
  48.6409123  45.1175127  24.4271562  49.9361560  44.3492274  24.5819496
  41.9478361  31.1263915  28.3231477  42.4712762  31.3726211  29.0857786
  41.7290694  31.9583950  27.9034614  37.3445642  33.3967589  16.1902601
  37.0158348  32.5164968  16.0077707  37.6985012  33.3415258  17.0778991
  46.5925221  45.0322492  20.6997587  46.4450183  44.1039200  20.8805157
  47.4178714  45.0542583  20.2154662  40.4587465  33.6840559  16.5578079
  40.7983537  34.2126480  15.8356688  40.9059585  34.0220965  17.3336646
  50.1959342  45.8551051  21.7862460  51.1205890  45.6493912  21.6486911
  50.0274646  45.6067452  22.6951801  43.1530906  32.0677610  26.0081147
  42.8127726  31.2685423  26.4101827  42.4469912  32.3679321  25.4357980
  43.8047378  29.1526922  24.4608470  44.6273447  28.6787401  24.3387361
  44.0485441  29.9317406  24.9607157  42.4455612  32.1815181  14.7571372
  43.1663975  32.5596434  14.2535089  41.8220916  32.9004058  14.8606350
  46.5886735  32.8860330  15.6929704  46.8050349  33.7684968  15.3918532
  46.1080802  32.4946543  14.9635346  41.3285956  35.8446043  22.2700449
  41.1830537  36.1586346  23.1624730  40.8511160  36.4630943  21.7171347
  43.1882339  32.8348591  22.3181338  43.1743908  31.9389684  21.9813636
  43.9054767  32.8419255  22.9519624  45.0408470  33.2685931  24.3634466
  44.7826248  34.1903002  24.3618796  44.5093510  32.8716366  25.0534930
  49.9854659  46.3736718  17.1424551  50.1591536  45.8083141  16.3898404
  50.4783550  47.1737613  16.9604041  35.8031618  38.3851387  25.2088110
  35.2585087  39.1611195  25.3408384  36.6810968  38.7322192  25.0507231
  42.5919235  31.7162971  17.5868909  42.7135146  30.7879617  17.7859796
  42.3021277  31.7301657  16.6747224  45.4610425  29.4017882  20.7235628
  45.4832122  29.4657215  19.7687608  45.8778484  28.5622390  20.9176135
  55.8394050  39.1373141  18.7614851  56.2825196  38.3880466  18.3633974
  54.9620560  39.1283278  18.3788583  50.9729831  45.6903483  14.2421449
  51.6680736  46.3110175  14.4608764  51.3152981  44.8398834  14.5173827
  36.5897640  37.5121284  28.1018267  35.8479376  37.6603919  28.6882897
  36.2690385  37.7729549  27.2385016  52.8721254  43.1403188  15.7708780
  53.3972578  43.4790461  15.0458100  52.7843607  42.2050204  15.5871915
  44.5341303  47.0537262  27.8998657  44.8428429  46.8086409  28.7721356
  45.3316785  47.2583900  27.4117527  44.5561915  49.2075172  20.1304033
  44.1166905  48.7151550  20.8236890  45.3070032  48.6648139  19.8896109
  37.0354254  45.3986712  20.1328662  37.8612274  45.0990484  19.7527305
  36.6848306  44.6294335  20.5818450  42.0035787  44.7513181  22.2026335
  41.3815796  44.0883886  21.9028563  42.6740654  44.7774313  21.5199983
  35.2362859  43.3173039  21.0917595  34.3994767  42.8895213  20.9101596
  35.2086504  43.5105482  22.0288386  42.0760315  33.2294969  31.7958841
  42.1248470  34.1057091  31.4136611  42.6182829  32.6872362  31.2230484
  52.5615160  43.7736092  31.0759978  51.7710704  43.7560231  30.5364478
  52.3248515  44.3124386  31.8309015  52.6813035  40.6228558  28.3892707
  52.7311040  40.4578566  29.3308230  52.5726959  39.7555817  27.9990588
  41.5649294  43.3017104  15.6784796  41.7137414  43.9852568  15.0251468
  42.3715738  43.2822194  16.1934251  49.9716798  36.6059486  29.7052013
  50.8726661  36.4665951  29.4136011  50.0464772  36.7713941  30.6450191
  44.3059603  33.9826341  28.5505200  43.4362912  34.2759907  28.2787788
  44.5419083  34.5666786  29.2712463  54.1831232  43.0425500  28.6334728
  53.8916041  43.4055480  29.4698189  53.5703363  42.3292508  28.4548060
  55.3826915  40.6078380  21.1537299  56.2173806  41.0468184  21.3174859
  55.5186043  40.1317033  20.3345544  52.4318420  38.1658114  27.1014786
  52.9072542  38.3585761  26.2933638  51.5083986  38.2217300  26.8558170
  39.3201927  39.3282282  16.6845865  39.0747969  38.4244612  16.8826075
  39.4897842  39.3299432  15.7425343  47.0098637  30.2005958  26.0670620
  47.5280581  30.9366985  25.7417109  46.6553770  30.5069951  26.9017379
  38.5897575  35.0610639  14.1832026  37.8966820  35.1354994  13.5272062
  38.3449326  34.2970983  14.7053543  47.2611231  26.6206241  21.5871517
  47.5412985  25.9529430  22.2131943  48.0461838  26.8135336  21.0746181
  45.0644700  45.7965234  13.1496543  44.4918667  46.4155422  12.6967015
  45.6377493  46.3464596  13.6836465  51.1320089  35.0423874  25.3343092
  52.0837512  35.1421972  25.3555316  50.9623540  34.2502143  25.8441176
  49.1534469  32.1279458  25.5202493  48.5584401  32.4084470  24.8248981
  48.8684166  32.6173359  26.2919234  48.2841959  46.0802385  14.2805125
  49.2172633  46.0147946  14.4838001  48.1965172  46.9158651  13.8219658
  50.9129976  45.3968255  11.2409073  50.8343608  45.0628118  12.1344831
  51.7339643  45.8890023  11.2400545  53.6108167  38.2629994  24.4485392
  53.5784487  37.3245995  24.6345075  54.2208791  38.3414031  23.7151216
  45.4491498  37.1326047  10.4912596  46.3950603  37.0032255  10.5601014
  45.0705743  36.3940709  10.9682024  53.7602656  35.0541038  24.4943675
  53.2441704  34.2699494  24.3073604  54.6442604  34.7259754  24.6590194
  51.4213383  28.7982053  20.4539487  51.2238204  28.4897141  21.3382819
  52.0313088  29.5243692  20.5837417  59.4284717  39.3246001  23.5891428
  60.1588106  39.0631289  24.1499132  58.8191663  38.5874723  23.6293496
  57.5100014  37.4653864  24.1865880  56.7833178  37.3309829  23.5782371
  57.0947301  37.7730692  24.9922598  45.3330191  41.1843793  31.9513253
  46.2533200  41.3622392  32.1453299  45.2979774  40.2399839  31.7992952
  43.6334415  35.0576024  10.4267481  42.7265871  34.7609136  10.5030194
  43.9110396  34.7605842   9.5601767  34.5512356  36.3782387  20.8766527
  34.2315140  35.5247695  20.5840901  34.0045784  36.5930965  21.6324495
  38.3292263  39.0944828  24.5936034  38.5478273  40.0261936  24.6124068
  38.7418037  38.7352802  25.3790838  45.2496481  29.6012913  16.5811722
  44.4397209  29.2559998  16.9566968  45.9380898  29.2920457  17.1699334
  47.1787029  28.6790960  18.2036019  47.7318068  29.0986413  18.8626042
  47.4157116  27.7526708  18.2458975  43.2020128  34.6678034  33.9838783
  43.1016855  35.6172391  33.9150874  42.9841671  34.3396273  33.1114853
  34.4200616  39.9985298  22.8459649  33.7264087  39.5839251  22.3329603
  35.1673607  40.0405835  22.2493068  50.5565836  30.7891485  17.7114683
  49.9764505  31.4476289  17.3292735  50.2901769  29.9668830  17.3002100
  49.0069403  30.1896543  19.9136003  49.5069181  30.3013077  19.1050322
  49.6505011  29.8857596  20.5536812  43.0651399  38.0975173  32.8003844
  42.5818480  38.8975533  33.0067733  43.1512338  38.1083117  31.8471288
  36.3337358  39.9303552  20.7225664  36.3108046  40.0291239  19.7707547
  36.6437995  40.7768703  21.0442830  38.9924736  41.9879707  24.8372278
  39.9467990  41.9563650  24.7702210  38.7937260  41.5270331  25.6522504
  39.5824118  40.5580823  27.4043076  40.4017007  41.0524902  27.4277913
  39.8560926  39.6412791  27.3760643  49.3390714  32.9491576  16.7671031
  48.4516569  33.2341226  16.5491226  49.7544703  32.7885339  15.9198308
  52.6905250  32.9738097  20.4825370  53.4665641  33.4634549  20.7549987
  51.9653385  33.3996151  20.9397240  55.1277809  33.6865716  21.5399311
  55.7222300  33.4461452  20.8292619  55.2004393  32.9672846  22.1672847
  37.3474965  47.5299327  21.8542476  37.2129433  46.7699728  21.2880474
  36.9307027  48.2540227  21.3871265  48.4833928  42.7136250  10.8619051
  49.1869778  42.9186253  11.4776707  47.7596577  43.2813012  11.1268135
  49.3131738  38.4646112  16.9821321  49.2566940  38.9214663  16.1428954
  49.8660081  37.7036796  16.8044164  53.1236544  34.2535843  17.8071441
  52.8673478  33.8532479  18.6379649  52.4989412  34.9679637  17.6821580
  57.4348882  36.9931917  20.3142732  56.8748440  37.0625106  21.0874294
  56.8292385  36.8172901  19.5942229  40.5044091  48.4268644  22.0660919
  40.3876475  49.3714076  21.9639609  39.6836537  48.1242205  22.4546718
  50.3920625  43.1518779  12.9117511  51.2266229  42.7199978  12.7294986
  50.2304968  42.9800793  13.8394406  50.0466517  39.6550893  14.2773851
  49.9915321  39.4895164  13.3362295  49.4212573  40.3626926  14.4336040
  34.8359032  34.8918957  28.1035273  35.4817896  34.3817911  28.5922498
  34.6276184  35.6287639  28.6778698  47.3612425  41.9599805  33.6027413
  48.2303584  42.1340457  33.2414048  46.8819176  42.7794221  33.4803143
  43.3562643  29.1559002  13.8559169  43.3441313  30.1000842  14.0127440
  44.2486065  28.9729147  13.5618630  41.5298605  49.0796906  25.2816847
  42.4325852  49.1120516  25.5983342  41.3035975  48.1497357  25.2963183
  43.2852207  47.8327892  21.9426926  42.3347838  47.8329754  21.8291298
  43.5884693  47.0860627  21.4262960  47.1714762  25.7501778  18.1105106
  46.4047158  25.1960265  18.2561788  47.5825467  25.8223647  18.9719257
  39.1756523  32.0386574  32.2010287  40.0387985  31.6823379  32.4113612
  38.6021934  31.7000469  32.8885691  59.0204900  53.6688431  23.0072688
  59.6583310  53.5495178  22.3036028  58.9025743  54.6169275  23.0660640
  55.8294607  53.6215859  22.9434213  55.4913118  53.5056923  22.0554748
  56.6984375  53.2207024  22.9235219  51.6881422  55.4751335  18.9331104
  51.1246287  55.3841272  18.1647391  51.5733817  54.6551240  19.4133596
  56.3114390  54.7750710  28.9020418  56.3003030  54.3803509  28.0300922
  56.4735029  54.0416783  29.4954190  49.2345854  56.9702527  21.7715324
  50.0267146  56.6293351  21.3561623  49.4742504  57.0797502  22.6917477
  57.2680981  59.1422303  14.2445569  56.6168961  59.7276383  13.8579582
  58.0625344  59.6728498  14.3040606  51.1936608  56.2311440  14.6432703
  51.9667484  55.6840427  14.5045579  51.5462007  57.0955689  14.8547164
  53.0321651  57.5587822  27.8499602  52.7411517  58.4633453  27.7346269
  53.6678635  57.6004350  28.5643672  53.9577858  54.9364671  24.4400962
  54.5541430  54.7120693  23.7257925  54.0152829  54.1949416  25.0426410
  53.5302886  52.3904106  12.2751153  53.7828407  51.8685627  11.5134616
  52.5927445  52.2270252  12.3777836  58.5746169  51.3939884  20.0825896
  59.3609258  50.9759308  19.7316313  58.8384873  52.2985977  20.2507544
  58.7456246  56.8312735  14.7814553  58.1102079  56.9047361  15.4935458
  58.4153653  57.4206334  14.1033632  63.9754596  51.3315118  20.9858875
  64.7079768  50.7614334  21.2196704  63.2193952  50.9436718  21.4265380
  53.2499175  54.2932212  14.4775528  53.1335433  53.6177115  15.1456612
  53.3601435  53.8064586  13.6607681  55.5930716  53.7542359  18.1822217
  55.2288923  53.2272980  18.8935139  56.4497832  53.3640828  18.0088702
  61.4980016  45.0436692  25.4453483  61.1663341  45.9132103  25.2214698
  60.9025630  44.7272976  26.1247514  55.2336203  48.7832259  13.1783566
  55.4010605  49.6512495  13.5454037  55.0433372  48.9459541  12.2544855
  57.9911536  57.2449238  24.8449396  57.6912259  58.1474277  24.7365203
  57.6462595  56.9781421  25.6970549  51.4424017  53.6963035  20.8786100
  50.5174514  53.5639249  21.0863792  51.6908431  54.4757254  21.3756043
  61.3908680  49.7631778  22.5246833  60.4825557  49.6947186  22.2305594
  61.3396275  50.2403723  23.3528659  55.2125424  51.2389916  14.1630232
  55.0925049  51.6846967  15.0015713  54.5178012  51.5875234  13.6043771
  48.8032828  53.3396308  21.7129889  48.9325210  53.5930787  22.6269301
  48.1230280  53.9324016  21.3934544  52.9732316  64.0093558  17.8120364
  52.8956345  64.9601383  17.8908844  52.3693959  63.6639431  18.4695290
  55.4649545  51.1821424  30.4681731  54.6882879  51.7415344  30.4584595
  56.1040108  51.6678206  30.9896601  63.2570326  47.9648216  24.3024707
  62.6144706  48.2580749  23.6564502  62.7525255  47.8501137  25.1077904
  60.9110490  51.7111390  14.9910566  61.8228346  51.9438776  14.8158264
  60.4020137  52.2948434  14.4285645  53.7195918  53.9906877  30.0299698
  54.4610602  54.5291921  29.7534521  53.0132903  54.6173166  30.1871249
  59.1951257  56.1336017  28.6271859  59.6034613  55.6918428  27.8826491
  58.4728519  55.5588645  28.8806052  55.5482327  51.0708624  26.0005416
  56.3943523  51.4948038  26.1440065  55.4880965  50.4142248  26.6943979
  59.5180072  56.6937208  22.3824148  58.8888934  56.8582922  21.6800216
  59.1305734  57.1078818  23.1535112  63.3969304  57.6291646  19.7368512
  62.7120342  58.0090547  19.1865545  63.4813153  58.2386972  20.4700459
  58.6981773  48.7312992  27.6586590  58.4542705  49.4855053  27.1220865
  58.9741703  49.1098340  28.4933837  60.6520235  55.2751605  26.3363855
  60.8637131  55.9183365  25.6598236  60.6049984  54.4413921  25.8685785
  58.2546464  47.8869425  23.2400427  57.3930943  48.1850679  23.5317165
  58.2808899  48.1039824  22.3081460  55.0708034  56.4311616  19.6474233
  55.5346379  56.7099319  18.8578855  54.8064832  55.5295061  19.4647324
  51.9632115  55.9783098  22.5853996  52.5333472  56.4070366  21.9471481
  52.5540227  55.6965682  23.2838182  54.0076920  52.5534768  16.4563798
  54.7100963  53.0055812  16.9237724  53.6757548  51.9118587  17.0843691
  52.4557281  51.1446525  30.8315008  51.8255942  51.8262806  31.0650404
  52.3493369  51.0329607  29.8868146  47.7502254  50.8118321  21.7580932
  46.9601308  51.0675850  21.2821042  48.2413501  51.6266659  21.8632972
  61.7666063  58.1523560  24.5086213  62.5883507  57.7503748  24.2268894
  61.7628466  58.0491794  25.4602328  49.7016999  51.1762900  18.7164408
  48.9048163  51.2881595  19.2347904  49.4742591  51.5149553  17.8505299
  55.5322667  57.7007604  26.6646923  55.5967099  58.1628011  27.5005095
  54.8233591  57.0704968  26.7929233  46.0339957  51.0648812  24.1895922
  46.2847995  51.9495821  24.4553498  46.5699505  50.8853413  23.4171014
  69.8572056  54.4962309  20.8571184  69.1035765  53.9269707  20.7015188
  69.9919598  54.4624973  21.8041819  55.2470685  59.3675711  16.5325903
  55.1116359  60.2127247  16.9610751  55.7880497  59.5694989  15.7691837
  51.7338024  45.4467291  33.1940259  51.3404970  44.8933489  33.8687903
  52.5504164  45.7577869  33.5846776  48.7000082  56.8851149  17.1053828
  49.2124602  57.6794399  17.2559393  49.3522795  56.1877440  17.0387430
  50.5094967  60.0016905  19.1876582  50.6861595  60.9234870  18.9997566
  51.3051800  59.6875325  19.6170961  54.6505985  46.8625170  30.7860515
  55.3915699  47.4632323  30.7064978  54.8823908  46.1202808  30.2278558
  49.7947323  52.0481537  29.0638745  49.6800838  51.1466794  29.3645844
  48.9391841  52.2945234  28.7123561  56.8739161  59.9899278  30.6626245
  56.4303015  59.2035656  30.3447150  57.5356374  60.1778428  29.9970136
  51.6326282  61.5195079  25.1886924  52.1833707  61.3912143  24.4163918
  50.7937758  61.8189968  24.8381817  58.9720399  60.2702077  28.6907647
  58.9538874  61.0910959  28.1987916  59.8940319  60.1456153  28.9157788
  55.4293453  57.7846207  29.5331155  55.9621790  57.0234495  29.3030463
  54.9007534  57.4919859  30.2755310  58.5963148  42.8906273  25.0624797
  58.2527417  43.7807915  24.9863907  58.9642111  42.7007931  24.1994382
  46.6648999  55.2139803  17.8813399  47.5024221  55.6236812  17.6647107
  46.8427266  54.2739246  17.8513593  58.5613431  52.8814884  13.5697232
  58.0460054  53.6519489  13.8085619  58.2890739  52.2080020  14.1930293
  56.1460542  47.7264585  18.6282470  55.2902138  47.3371435  18.4488109
  56.5587494  47.8056546  17.7682256  57.6759688  45.2610928  23.0274030
  57.1724484  45.2241063  22.2141835  57.9690295  46.1703671  23.0870687
  53.9202574  45.3449658  22.0340212  54.7855571  45.1492466  21.6746101
  53.9880083  45.1160010  22.9609569  63.5347705  55.6347239  15.5050405
  62.7577148  55.2958398  15.0605567  64.2139186  55.6399862  14.8305370
  58.3499734  50.7541976  15.3957013  58.0449870  51.0688125  16.2467156
  59.3030176  50.8323396  15.4384346  56.7946166  56.9132199  17.0449967
  56.2667527  56.1784959  16.7323205  56.2933669  57.6906876  16.7989935
  61.7739012  55.1081220  22.1617013  61.1162686  55.7980481  22.2497142
  62.5779411  55.4977652  22.5051000  51.5264893  47.5751866  19.4056579
  52.1008645  47.3527047  18.6729772  52.1135876  47.6440560  20.1585180
  60.5844471  53.4625593  20.2120955  61.0976352  54.0955584  20.7142665
  61.2345695  52.8626788  19.8464315  51.8534481  49.6056327  13.4252464
  51.0171793  49.9431013  13.7461739  51.7139250  49.4705307  12.4879601
  53.8287561  44.4493115  18.1331648  53.1751973  44.1342132  17.5088263
  53.7868035  43.8268855  18.8591471  54.9398766  54.7312410  10.0484940
  54.0325828  54.5001663  10.2476089  55.4369798  53.9350029  10.2358922
  57.8466845  63.4409917  12.9681626  57.1728544  63.7441614  13.5766584
  58.2332667  64.2438997  12.6187083  57.0625302  50.9375048  22.4579296
  56.1447863  51.1589995  22.3000984  57.4785445  51.0121359  21.5991003
  57.8460349  52.3366464  17.5881976  58.5932168  52.8487861  17.2789098
  58.1151939  52.0150517  18.4486369  56.1186999  54.8325005  14.5708930
  55.2098219  54.5484037  14.6681400  56.1482083  55.2524083  13.7112237
  61.3506267  58.4431594  18.3400098  60.8968594  57.6022504  18.3965288
  60.7200234  59.0792992  18.6774878  60.2939186  49.3723580  19.5700765
  59.5561943  48.8600966  19.9011008  60.5465960  48.9323962  18.7584042
  59.7939206  60.2808091  19.2749916  60.0862180  60.8413148  18.5562282
  60.3037827  60.5736652  20.0303075  60.3950814  42.1499832  20.1642534
  60.7009691  41.2897196  19.8768450  61.1203419  42.7417452  19.9641528
  46.6875170  52.5530519  18.5524132  46.4899570  51.9599879  17.8275199
  46.1321834  52.2482729  19.2700071  54.6671893  52.4453625  20.6718726
  54.7220503  51.4927462  20.5961202  53.8563096  52.6013064  21.1560024
  55.8163087  56.3733748  11.9097009  55.3782517  55.6569607  11.4502646
  56.5573528  56.6009863  11.3482100  52.6064253  51.0630685  18.4309104
  51.7932119  51.3624855  18.8374297  53.1023248  50.6686374  19.1483587
  54.7572831  61.0588442  20.3643369  54.7149010  61.2849288  19.4351901
  55.6735530  60.8251816  20.5129170  58.2038465  51.5272509  27.2623998
  58.5587853  51.7543983  28.1218464  58.8510596  51.8590886  26.6401254
  63.9336202  54.6490945  17.9673327  63.7954101  54.8392541  17.0394517
  63.5772421  55.4110328  18.4241378  52.0978328  48.6349040  24.0470339
  52.7377707  48.4937800  23.3493303  51.2655859  48.3483554  23.6708941
  63.9605582  56.7167472  22.9784599  64.3942088  56.6242761  23.8267653
  64.6737162  56.6924973  22.3404615  52.8738632  57.9351471  20.1605332
  53.6679231  57.4401791  19.9587907  52.1630324  57.4069334  19.7973037
  57.6933477  60.3169566  24.5117699  57.7470499  60.8860503  25.2795415
  56.8248258  60.4871451  24.1471737  49.1821396  52.0794553  16.2365085
  48.2518984  52.0179008  16.4535047  49.2778868  51.5570505  15.4401726
  49.1006945  48.6049365  18.8243326  49.3613762  49.5194699  18.7152487
  49.9224117  48.1373808  18.9739939  50.5731870  50.0187123  25.9942151
  51.2454923  49.8104485  25.3454800  49.7461656  49.8209209  25.5547383
  64.8221131  56.7591173  25.5117484  65.0157021  57.6636983  25.7576759
  64.7221749  56.2998592  26.3456069  56.4757442  46.6449064  28.0107812
  55.8285357  47.3439013  27.9172288  57.2458457  47.0785207  28.3784060
  59.8836240  56.9097916  31.0858365  59.7321746  56.6808467  30.1688449
  59.8740919  57.8668517  31.0989710  56.6521576  54.4829828  26.0704631
  57.5813636  54.6340988  25.8973599  56.2312606  54.5713849  25.2153278
  55.4509908  58.5080493  23.8403169  55.3120994  58.1399277  24.7129107
  54.6624504  59.0228132  23.6687127  56.0458060  63.6089589  15.1828705
  56.2209816  63.1377633  15.9974328  55.3590848  64.2355356  15.4109966
  57.0015123  57.8862096  21.2292007  56.6664956  57.8462866  22.1249657
  56.5019069  57.2206811  20.7562417  50.9759367  53.2929726  26.7544588
  50.8379165  52.5609964  27.3556127  51.8864291  53.2038626  26.4728776
  59.9374315  55.2318130  11.5029066  59.3203486  54.5064958  11.4062119
  59.4690803  55.9927490  11.1596141  53.6041668  53.0049685  26.2428268
  54.3141286  52.3642877  26.2014886  53.5610976  53.2562580  27.1654448
  61.5928447  59.9417038  29.1634847  61.5340993  59.2576258  28.4965430
  61.9947965  60.6836028  28.7115473  52.3170602  49.9914903  28.0623907
  51.7807959  49.5405641  28.7145503  51.7287310  50.1260812  27.3194371
  50.6119145  66.7578952  21.9568566  50.8515744  67.3897476  22.6347584
  49.7688342  66.4066992  22.2433925  51.7272861  49.4503554  10.6250371
  50.8502327  49.3292355  10.2612617  52.2030614  48.6589632  10.3729259
  61.5945854  57.9056622  27.3948826  60.7072633  57.5682544  27.5175225
  62.1644405  57.1739653  27.6317592  43.2475001  54.2380714  20.7191878
  43.9346041  53.9242444  20.1312893  43.0923130  55.1422079  20.4459129
  48.0509723  49.1270910  25.1476901  47.9667912  48.5196580  24.4127311
  47.2292429  49.6179929  25.1486398  55.1247007  62.5658075  24.3610070
  55.0517179  63.3713046  24.8729374  54.6824400  62.7650040  23.5358091
  54.9136787  61.8029845  17.8712891  54.1304309  62.3451525  17.9651116
  55.6129532  62.3203824  18.2707132  58.2233437  47.6124474  20.5147097
  58.7202136  46.8594436  20.1948167  57.4520418  47.6488791  19.9490306
  66.0763194  53.3164840  22.1565388  66.0653071  54.1989555  21.7859321
  65.2080574  52.9636390  21.9619925  57.5845691  62.4644909  26.5168228
  58.2973663  63.0992373  26.4444130  57.0935719  62.5608775  25.7008230
  59.3063218  56.3696161  18.0885520  58.3719496  56.4897624  17.9190224
  59.4839886  55.4668628  17.8245530  54.8068406  49.7541857  20.2418781
  54.4366193  49.2012897  20.9299687  55.3027498  49.1499990  19.6893781
  62.6935769  52.2113481  18.6235554  63.1596221  53.0441472  18.5495857
  63.1443269  51.7458462  19.3280813  52.6357604  60.2139352  27.3373799
  53.3367064  60.8475835  27.4903193  52.1652719  60.5554084  26.5769438
  60.7612000  58.5557302  15.6221706  61.0371844  58.4413896  16.5315580
  59.8916499  58.1574787  15.5833879  60.6652432  44.5794068  22.6626455
  59.7515512  44.8098294  22.8308662  61.0945533  44.6632512  23.5140488
  60.4358890  52.7683959  25.1626349  59.7830340  53.0159867  24.5078802
  60.8139270  51.9548098  24.8288827  57.3966064  62.8043653  19.2654520
  57.5788459  61.9865309  19.7282272  58.2199050  63.0211345  18.8279410
  57.7308230  61.7311838  16.5269568  58.2595996  61.2204292  15.9139730
  57.9936449  61.4154368  17.3915101  56.4846463  53.5103771  31.6492387
  55.8087100  53.4097900  32.3194762  57.3074097  53.3542984  32.1128384
  48.2325322  59.7475707  24.2704902  48.8178759  59.0019395  24.4032806
  48.0350161  60.0579664  25.1541566  51.0863978  62.7826954  19.2867344
  50.4174353  63.2673082  18.8031384  50.9476847  63.0296175  20.2010723
  42.8242977  52.3181307  22.9909345  42.8627077  51.7844898  23.7846463
  42.3183270  51.7916513  22.3720322  55.2269246  64.8170698  25.8850003
  55.7787554  64.9802319  26.6499088  55.5675440  65.4075136  25.2130027
  50.2033739  47.1645848  26.4871887  50.2675066  48.0260679  26.0749285
  50.1400860  46.5519849  25.7544246  49.6786012  49.2368980  30.1344921
  50.3058051  48.8546058  30.7482446  48.8213931  49.0183182  30.5000614
  60.0780120  59.6431955  31.7398657  60.6220024  60.2561914  31.2453612
  59.4966965  60.2011534  32.2565670  46.4551555  51.0445409  16.0663276
  46.7504996  50.1356088  16.0130330  45.5539590  51.0233149  15.7444279
  58.3637633  62.7652674  22.8713685  58.2388773  61.9642413  22.3624630
  59.0216725  63.2598867  22.3827655  49.9845802  49.1201406  22.0490825
  49.2632387  49.7337374  21.9098298  50.7739057  49.6559171  21.9707471
  60.4272542  60.5661694  24.4993235  59.4802877  60.4467045  24.4271562
  60.7755315  59.6784192  24.5819496  52.7872115  46.4555833  28.3231477
  53.3106517  46.7018129  29.0857786  52.5684448  47.2875867  27.9034614
  48.1839396  48.7259507  16.1902601  47.8552102  47.8456886  16.0077707
  48.5378767  48.6707176  17.0778991  57.4318975  60.3614410  20.6997587
  57.2843938  59.4331117  20.8805157  58.2572469  60.3834501  20.2154662
  51.2981219  49.0132477  16.5578079  51.6377292  49.5418398  15.8356688
  51.7453340  49.3512883  17.3336646  61.0353097  61.1842969  21.7862460
  61.9599644  60.9785830  21.6486911  60.8668400  60.9359370  22.6951801
  53.9924660  47.3969528  26.0081147  53.6521481  46.5977341  26.4101827
  53.2863666  47.6971238  25.4357980  54.6441132  44.4818840  24.4608470
  55.4667201  44.0079318  24.3387361  54.8879196  45.2609324  24.9607157
  53.2849367  47.5107098  14.7571372  54.0057729  47.8888351  14.2535089
  52.6614671  48.2295975  14.8606350  57.4280489  48.2152247  15.6929704
  57.6444104  49.0976885  15.3918532  56.9474557  47.8238461  14.9635346
  52.1679711  51.1737961  22.2700449  52.0224291  51.4878264  23.1624730
  51.6904914  51.7922861  21.7171347  54.0276094  48.1640509  22.3181338
  54.0137662  47.2681602  21.9813636  54.7448522  48.1711172  22.9519624
  55.8802224  48.5977849  24.3634466  55.6220002  49.5194920  24.3618796
  55.3487265  48.2008283  25.0534930  60.8248413  61.7028636  17.1424551
  60.9985291  61.1375058  16.3898404  61.3177304  62.5029531  16.9604041
  46.6425373  53.7143305  25.2088110  46.0978841  54.4903113  25.3408384
  47.5204723  54.0614110  25.0507231  53.4312990  47.0454889  17.5868909
  53.5528901  46.1171535  17.7859796  53.1415032  47.0593575  16.6747224
  56.3004180  44.7309799  20.7235628  56.3225877  44.7949132  19.7687608
  56.7172239  43.8914308  20.9176135  66.6787804  54.4665059  18.7614851
  67.1218950  53.7172384  18.3633974  65.8014315  54.4575195  18.3788583
  61.8123586  61.0195400  14.2421449  62.5074490  61.6402093  14.4608764
  62.1546736  60.1690752  14.5173827  47.4291395  52.8413201  28.1018267
  46.6873131  52.9895837  28.6882897  47.1084139  53.1021467  27.2385016
  63.7115009  58.4695106  15.7708780  64.2366333  58.8082379  15.0458100
  63.6237361  57.5342121  15.5871915  55.3735057  62.3829180  27.8998657
  55.6822184  62.1378326  28.7721356  56.1710539  62.5875818  27.4117527
  55.3955669  64.5367089  20.1304033  54.9560660  64.0443468  20.8236890
  56.1463786  63.9940057  19.8896109  47.8748008  60.7278630  20.1328662
  48.7006028  60.4282402  19.7527305  47.5242060  59.9586252  20.5818450
  52.8429542  60.0805098  22.2026335  52.2209551  59.4175803  21.9028563
  53.5134409  60.1066230  21.5199983  46.0756614  58.6464957  21.0917595
  45.2388522  58.2187131  20.9101596  46.0480259  58.8397400  22.0288386
  52.9154069  48.5586886  31.7958841  52.9642225  49.4349009  31.4136611
  53.4576583  48.0164279  31.2230484  63.4008915  59.1028010  31.0759978
  62.6104459  59.0852148  30.5364478  63.1642269  59.6416303  31.8309015
  63.5206790  55.9520476  28.3892707  63.5704795  55.7870483  29.3308230
  63.4120713  55.0847735  27.9990588  52.4043049  58.6309022  15.6784796
  52.5531169  59.3144486  15.0251468  53.2109492  58.6114112  16.1934251
  60.8110552  51.9351404  29.7052013  61.7120415  51.7957869  29.4136011
  60.8858527  52.1005859  30.6450191  55.1453358  49.3118259  28.5505200
  54.2756667  49.6051825  28.2787788  55.3812838  49.8958704  29.2712463
  65.0224987  58.3717417  28.6334728  64.7309795  58.7347398  29.4698189
  64.4097118  57.6584426  28.4548060  66.2220669  55.9370297  21.1537299
  67.0567560  56.3760101  21.3174859  66.3579798  55.4608950  20.3345544
  63.2712175  53.4950032  27.1014786  63.7466297  53.6877678  26.2933638
  62.3477740  53.5509218  26.8558170  50.1595682  54.6574199  16.6845865
  49.9141723  53.7536529  16.8826075  50.3291596  54.6591350  15.7425343
  57.8492391  45.5297876  26.0670620  58.3674335  46.2658903  25.7417109
  57.4947524  45.8361869  26.9017379  49.4291329  50.3902557  14.1832026
  48.7360574  50.4646912  13.5272062  49.1843081  49.6262900  14.7053543
  58.1004986  41.9498158  21.5871517  58.3806739  41.2821347  22.2131943
  58.8855593  42.1427254  21.0746181  55.9038454  61.1257152  13.1496543
  55.3312421  61.7447339  12.6967015  56.4771248  61.6756514  13.6836465
  61.9713844  50.3715792  25.3343092  62.9231267  50.4713890  25.3555316
  61.8017294  49.5794061  25.8441176  59.9928223  47.4571375  25.5202493
  59.3978156  47.7376388  24.8248981  59.7077920  47.9465276  26.2919234
  59.1235714  61.4094302  14.2805125  60.0566387  61.3439864  14.4838001
  59.0358927  62.2450569  13.8219658  61.7523731  60.7260173  11.2409073
  61.6737362  60.3920036  12.1344831  62.5733397  61.2181940  11.2400545
  64.4501922  53.5921912  24.4485392  64.4178242  52.6537913  24.6345075
  65.0602545  53.6705949  23.7151216  56.2885253  52.4617965  10.4912596
  57.2344357  52.3324173  10.5601014  55.9099498  51.7232627  10.9682024
  64.5996410  50.3832955  24.4943675  64.0835459  49.5991412  24.3073604
  65.4836359  50.0551672  24.6590194  62.2607137  44.1273971  20.4539487
  62.0631958  43.8189059  21.3382819  62.8706843  44.8535610  20.5837417
  70.2678472  54.6537919  23.5891428  70.9981860  54.3923207  24.1499132
  69.6585417  53.9166641  23.6293496  68.3493769  52.7945781  24.1865880
  67.6226932  52.6601746  23.5782371  67.9341056  53.1022610  24.9922598
  56.1723945  56.5135711  31.9513253  57.0926955  56.6914310  32.1453299
  56.1373528  55.5691756  31.7992952  54.4728170  50.3867941  10.4267481
  53.5659625  50.0901054  10.5030194  54.7504151  50.0897759   9.5601767
  45.3906110  51.7074305  20.8766527  45.0708894  50.8539613  20.5840901
  44.8439538  51.9222883  21.6324495  49.1686018  54.4236746  24.5936034
  49.3872027  55.3553853  24.6124068  49.5811791  54.0644720  25.3790838
  56.0890235  44.9304831  16.5811722  55.2790964  44.5851916  16.9566968
  56.7774652  44.6212375  17.1699334  58.0180784  44.0082878  18.2036019
  58.5711822  44.4278331  18.8626042  58.2550870  43.0818626  18.2458975
  54.0413883  49.9969951  33.9838783  53.9410610  50.9464308  33.9150874
  53.8235425  49.6688190  33.1114853  53.2426954  47.2454876  10.5679460
  54.1046118  47.5709775  10.8275277  53.4277299  46.4586372  10.0552526
  45.2594370  55.3277216  22.8459649  44.5657842  54.9131169  22.3329603
  46.0067361  55.3697753  22.2493068  61.3959591  46.1183403  17.7114683
  60.8158260  46.7768207  17.3292735  61.1295524  45.2960747  17.3002100
  59.8463157  45.5188461  19.9136003  60.3462936  45.6304995  19.1050322
  60.4898765  45.2149513  20.5536812  53.9045153  53.4267090  32.8003844
  53.4212235  54.2267450  33.0067733  53.9906092  53.4375035  31.8471288
  47.1731113  55.2595470  20.7225664  47.1501801  55.3583157  19.7707547
  47.4831749  56.1060621  21.0442830  49.8318491  57.3171625  24.8372278
  50.7861744  57.2855567  24.7702210  49.6331014  56.8562249  25.6522504
  50.4217873  55.8872741  27.4043076  51.2410762  56.3816820  27.4277913
  50.6954680  54.9704709  27.3760643  60.1784469  48.2783493  16.7671031
  59.2910324  48.5633144  16.5491226  60.5938458  48.1177257  15.9198308
  63.5299005  48.3030014  20.4825370  64.3059395  48.7926467  20.7549987
  62.8047139  48.7288068  20.9397240  65.9671564  49.0157633  21.5399311
  66.5616054  48.7753369  20.8292619  66.0398147  48.2964764  22.1672847
  48.1868719  62.8591244  21.8542476  48.0523187  62.0991645  21.2880474
  47.7700782  63.5832144  21.3871265  59.3227682  58.0428168  10.8619051
  60.0263532  58.2478170  11.4776707  58.5990331  58.6104930  11.1268135
  60.1525493  53.7938029  16.9821321  60.0960694  54.2506581  16.1428954
  60.7053835  53.0328714  16.8044164  63.9630299  49.5827761  17.8071441
  63.7067233  49.1824397  18.6379649  63.3383167  50.2971555  17.6821580
  68.2742636  52.3223834  20.3142732  67.7142194  52.3917024  21.0874294
  67.6686140  52.1464819  19.5942229  51.3437845  63.7560561  22.0660919
  51.2270229  64.7005994  21.9639609  50.5230291  63.4534123  22.4546718
  61.2314380  58.4810697  12.9117511  62.0659984  58.0491896  12.7294986
  61.0698723  58.3092711  13.8394406  60.8860272  54.9842810  14.2773851
  60.8309076  54.8187082  13.3362295  60.2606327  55.6918843  14.4336040
  45.6752787  50.2210875  28.1035273  46.3211650  49.7109829  28.5922498
  45.4669938  50.9579556  28.6778698  58.2006179  57.2891722  33.6027413
  59.0697339  57.4632375  33.2414048  57.7212931  58.1086139  33.4803143
  54.1956397  44.4850919  13.8559169  54.1835067  45.4292759  14.0127440
  55.0879819  44.3021065  13.5618630  52.3692359  64.4088823  25.2816847
  53.2719606  64.4412434  25.5983342  52.1429729  63.4789274  25.2963183
  54.1245961  63.1619810  21.9426926  53.1741592  63.1621671  21.8291298
  54.4278447  62.4152544  21.4262960  58.0108517  41.0793696  18.1105106
  57.2440913  40.5252183  18.2561788  58.4219222  41.1515565  18.9719257
  50.0150278  47.3678492  32.2010287  50.8781739  47.0115297  32.4113612
  49.4415689  47.0292387  32.8885691  69.8598655  68.9980348  23.0072688
  70.4977065  68.8787096  22.3036028  69.7419498  69.9461192  23.0660640
  66.6688361  68.9507776  22.9434213  66.3306873  68.8348841  22.0554748
  67.5378129  68.5498941  22.9235219  62.5275177  70.8043253  18.9331104
  61.9640042  70.7133190  18.1647391  62.4127572  69.9843157  19.4133596
  67.1508144  70.1042628  28.9020418  67.1396785  69.7095426  28.0300922
  67.3128784  69.3708701  29.4954190  60.0739609  72.2994444  21.7715324
  60.8660901  71.9585269  21.3561623  60.3136259  72.4089419  22.6917477
  68.1074736  74.4714220  14.2445569  67.4562715  75.0568301  13.8579582
  68.9019098  75.0020415  14.3040606  62.0330363  71.5603358  14.6432703
  62.8061239  71.0132345  14.5045579  62.3855762  72.4247607  14.8547164
  63.8715405  72.8879740  27.8499602  63.5805271  73.7925371  27.7346269
  64.5072390  72.9296268  28.5643672  64.7971612  70.2656588  24.4400962
  65.3935184  70.0412611  23.7257925  64.8546584  69.5241334  25.0426410
  64.3696640  67.7196024  12.2751153  64.6222161  67.1977545  11.5134616
  63.4321200  67.5562169  12.3777836  69.4139923  66.7231802  20.0825896
  70.2003013  66.3051225  19.7316313  69.6778628  67.6277894  20.2507544
  69.5850001  72.1604652  14.7814553  68.9495834  72.2339279  15.4935458
  69.2547407  72.7498251  14.1033632  74.8148350  66.6607035  20.9858875
  75.5473522  66.0906252  21.2196704  74.0587706  66.2728636  21.4265380
  64.0892929  69.6224130  14.4775528  63.9729187  68.9469033  15.1456612
  64.1995189  69.1356504  13.6607681  66.4324470  69.0834277  18.1822217
  66.0682677  68.5564898  18.8935139  67.2891586  68.6932746  18.0088702
  72.3373771  60.3728609  25.4453483  72.0057096  61.2424020  25.2214698
  71.7419384  60.0564893  26.1247514  66.0729957  64.1124177  13.1783566
  66.2404359  64.9804413  13.5454037  65.8827126  64.2751458  12.2544855
  68.8305290  72.5741155  24.8449396  68.5306013  73.4766194  24.7365203
  68.4856350  72.3073339  25.6970549  62.2817772  69.0254952  20.8786100
  61.3568268  68.8931166  21.0863792  62.5302185  69.8049171  21.3756043
  72.2302434  65.0923696  22.5246833  71.3219311  65.0239104  22.2305594
  72.1790030  65.5695641  23.3528659  66.0519178  66.5681834  14.1630232
  65.9318803  67.0138885  15.0015713  65.3571766  66.9167152  13.6043771
  59.6426583  68.6688226  21.7129889  59.7718964  68.9222705  22.6269301
  58.9624034  69.2615934  21.3934544  63.8126070  79.3385476  17.8120364
  63.7350100  80.2893301  17.8908844  63.2087714  78.9931348  18.4695290
  66.3043300  66.5113341  30.4681731  65.5276634  67.0707261  30.4584595
  66.9433863  66.9970124  30.9896601  74.0964081  63.2940134  24.3024707
  73.4538461  63.5872667  23.6564502  73.5919009  63.1793054  25.1077904
  71.7504244  67.0403307  14.9910566  72.6622100  67.2730694  14.8158264
  71.2413891  67.6240351  14.4285645  64.5589672  69.3198795  30.0299698
  65.3004357  69.8583839  29.7534521  63.8526658  69.9465083  30.1871249
  70.0345012  71.4627935  28.6271859  70.4428368  71.0210346  27.8826491
  69.3122273  70.8880563  28.8806052  66.3876082  66.4000542  26.0005416
  67.2337277  66.8239955  26.1440065  66.3274720  65.7434166  26.6943979
  70.3573826  72.0229126  22.3824148  69.7282689  72.1874840  21.6800216
  69.9699489  72.4370735  23.1535112  74.2363058  72.9583563  19.7368512
  73.5514097  73.3382465  19.1865545  74.3206908  73.5678890  20.4700459
  69.5375527  64.0604910  27.6586590  69.2936459  64.8146971  27.1220865
  69.8135458  64.4390258  28.4933837  71.4913990  70.6043523  26.3363855
  71.7030885  71.2475282  25.6598236  71.4443738  69.7705839  25.8685785
  69.0940219  63.2161343  23.2400427  68.2324698  63.5142597  23.5317165
  69.1202654  63.4331742  22.3081460  65.9101788  71.7603534  19.6474233
  66.3740134  72.0391237  18.8578855  65.6458586  70.8586978  19.4647324
  62.8025869  71.3075015  22.5853996  63.3727226  71.7362284  21.9471481
  63.3933981  71.0257600  23.2838182  64.8470674  67.8826686  16.4563798
  65.5494718  68.3347730  16.9237724  64.5151303  67.2410505  17.0843691
  63.2951036  66.4738443  30.8315008  62.6649697  67.1554724  31.0650404
  63.1887124  66.3621524  29.8868146  58.5896008  66.1410239  21.7580932
  57.7995062  66.3967767  21.2821042  59.0807256  66.9558577  21.8632972
  72.6059818  73.4815478  24.5086213  73.4277262  73.0795665  24.2268894
  72.6022221  73.3783712  25.4602328  60.5410754  66.5054818  18.7164408
  59.7441917  66.6173512  19.2347904  60.3136346  66.8441470  17.8505299
  66.3716421  73.0299521  26.6646923  66.4360854  73.4919928  27.5005095
  65.6627345  72.3996886  26.7929233  56.8733711  66.3940729  24.1895922
  57.1241750  67.2787739  24.4553498  57.4093260  66.2145331  23.4171014
  80.6965811  69.8254226  20.8571184  79.9429519  69.2561624  20.7015188
  80.8313352  69.7916891  21.8041819  66.0864439  74.6967629  16.5325903
  65.9510114  75.5419164  16.9610751  66.6274252  74.8986906  15.7691837
  62.5731779  60.7759209  33.1940259  62.1798724  60.2225407  33.8687903
  63.3897919  61.0869787  33.5846776  59.5393836  72.2143067  17.1053828
  60.0518357  73.0086317  17.2559393  60.1916549  71.5169357  17.0387430
  61.3488721  75.3308823  19.1876582  61.5255349  76.2526788  18.9997566
  62.1445555  75.0167242  19.6170961  65.4899740  62.1917088  30.7860515
  66.2309453  62.7924241  30.7064978  65.7217662  61.4494725  30.2278558
  60.6341078  67.3773455  29.0638745  60.5194593  66.4758712  29.3645844
  59.7785595  67.6237152  28.7123561  67.7132915  75.3191195  30.6626245
  67.2696770  74.5327574  30.3447150  68.3750129  75.5070346  29.9970136
  62.4720037  76.8486997  25.1886924  63.0227462  76.7204060  24.4163918
  61.6331512  77.1481886  24.8381817  69.8114153  75.5993995  28.6907647
  69.7932629  76.4202876  28.1987916  70.7334074  75.4748070  28.9157788
  66.2687208  73.1138125  29.5331155  66.8015544  72.3526413  29.3030463
  65.7401289  72.8211776  30.2755310  69.4356903  58.2198191  25.0624797
  69.0921172  59.1099832  24.9863907  69.8035865  58.0299848  24.1994382
  57.5042753  70.5431721  17.8813399  58.3417975  70.9528729  17.6647107
  57.6821021  69.6031163  17.8513593  69.4007185  68.2106802  13.5697232
  68.8853809  68.9811406  13.8085619  69.1284494  67.5371938  14.1930293
  66.9854296  63.0556502  18.6282470  66.1295893  62.6663353  18.4488109
  67.3981248  63.1348463  17.7682256  68.5153443  60.5902846  23.0274030
  68.0118239  60.5532981  22.2141835  68.8084050  61.4995588  23.0870687
  64.7596329  60.6741575  22.0340212  65.6249326  60.4784384  21.6746101
  64.8273838  60.4451927  22.9609569  74.3741459  70.9639156  15.5050405
  73.5970902  70.6250316  15.0605567  75.0532940  70.9691780  14.8305370
  69.1893488  66.0833894  15.3957013  68.8843624  66.3980043  16.2467156
  70.1423931  66.1615314  15.4384346  67.6339920  72.2424117  17.0449967
  67.1061282  71.5076877  16.7323205  67.1327423  73.0198793  16.7989935
  72.6132766  70.4373138  22.1617013  71.9556441  71.1272399  22.2497142
  73.4173166  70.8269570  22.5051000  62.3658648  62.9043783  19.4056579
  62.9402400  62.6818965  18.6729772  62.9529630  62.9732478  20.1585180
  71.4238225  68.7917510  20.2120955  71.9370107  69.4247502  20.7142665
  72.0739449  68.1918706  19.8464315  62.6928235  64.9348244  13.4252464
  61.8565547  65.2722931  13.7461739  62.5533005  64.7997224  12.4879601
  64.6681316  59.7785032  18.1331648  64.0145728  59.4634049  17.5088263
  64.6261790  59.1560773  18.8591471  65.7792521  70.0604327  10.0484940
  64.8719582  69.8293581  10.2476089  66.2763552  69.2641947  10.2358922
  68.6860599  78.7701835  12.9681626  68.0122298  79.0733531  13.5766584
  69.0726421  79.5730915  12.6187083  67.9019056  66.2666966  22.4579296
  66.9841617  66.4881913  22.3000984  68.3179200  66.3413276  21.5991003
  68.6854104  67.6658382  17.5881976  69.4325923  68.1779779  17.2789098
  68.9545693  67.3442434  18.4486369  66.9580754  70.1616922  14.5708930
  66.0491973  69.8775955  14.6681400  66.9875838  70.5816001  13.7112237
  72.1900021  73.7723512  18.3400098  71.7362348  72.9314422  18.3965288
  71.5593988  74.4084910  18.6774878  71.1332941  64.7015498  19.5700765
  70.3955698  64.1892884  19.9011008  71.3859714  64.2615879  18.7584042
  70.6332961  75.6100008  19.2749916  70.9255935  76.1705066  18.5562282
  71.1431581  75.9028569  20.0303075  71.2344568  57.4791750  20.1642534
  71.5403445  56.6189113  19.8768450  71.9597173  58.0709370  19.9641528
  57.5268924  67.8822436  18.5524132  57.3293324  67.2891797  17.8275199
  56.9715588  67.5774647  19.2700071  65.5065648  67.7745543  20.6718726
  65.5614258  66.8219379  20.5961202  64.6956850  67.9304982  21.1560024
  66.6556842  71.7025666  11.9097009  66.2176272  70.9861525  11.4502646
  67.3967283  71.9301781  11.3482100  63.4458008  66.3922603  18.4309104
  62.6325873  66.6916773  18.8374297  63.9417002  65.9978291  19.1483587
  65.5966586  76.3880360  20.3643369  65.5542765  76.6141206  19.4351901
  66.5129285  76.1543734  20.5129170  69.0432220  66.8564427  27.2623998
  69.3981607  67.0835900  28.1218464  69.6904351  67.1882804  26.6401254
  74.7729957  69.9782863  17.9673327  74.6347855  70.1684459  17.0394517
  74.4166175  70.7402246  18.4241378  62.9372083  63.9640958  24.0470339
  63.5771462  63.8229717  23.3493303  62.1049613  63.6775472  23.6708941
  74.7999336  72.0459390  22.9784599  75.2335843  71.9534679  23.8267653
  75.5130917  72.0216890  22.3404615  63.7132387  73.2643389  20.1605332
  64.5072985  72.7693709  19.9587907  63.0024079  72.7361252  19.7973037
  68.5327231  75.6461484  24.5117699  68.5864253  76.2152420  25.2795415
  67.6642012  75.8163369  24.1471737  60.0215150  67.4086470  16.2365085
  59.0912738  67.3470926  16.4535047  60.1172622  66.8862423  15.4401726
  59.9400699  63.9341283  18.8243326  60.2007516  64.8486616  18.7152487
  60.7617871  63.4665726  18.9739939  61.4125624  65.3479040  25.9942151
  62.0848678  65.1396402  25.3454800  60.5855411  65.1501126  25.5547383
  75.6614886  72.0883091  25.5117484  75.8550776  72.9928901  25.7576759
  75.5615504  71.6290510  26.3456069  67.3151196  61.9740981  28.0107812
  66.6679111  62.6730931  27.9172288  68.0852212  62.4077125  28.3784060
  70.7229994  72.2389833  31.0858365  70.5715501  72.0100385  30.1688449
  70.7134674  73.1960435  31.0989710  67.4915331  69.8121746  26.0704631
  68.4207391  69.9632906  25.8973599  67.0706361  69.9005767  25.2153278
  66.2903663  73.8372411  23.8403169  66.1514748  73.4691195  24.7129107
  65.5018259  74.3520050  23.6687127  66.8851815  78.9381507  15.1828705
  67.0603570  78.4669550  15.9974328  66.1984603  79.5647273  15.4109966
  67.8408878  73.2154013  21.2292007  67.5058710  73.1754783  22.1249657
  67.3412823  72.5498729  20.7562417  61.8153122  68.6221643  26.7544588
  61.6772920  67.8901882  27.3556127  62.7258045  68.5330543  26.4728776
  70.7768069  70.5610048  11.5029066  70.1597240  69.8356876  11.4062119
  70.3084558  71.3219408  11.1596141  64.4435422  68.3341603  26.2428268
  65.1535041  67.6934795  26.2014886  64.4004730  68.5854497  27.1654448
  72.4322201  75.2708956  29.1634847  72.3734747  74.5868176  28.4965430
  72.8341719  76.0127946  28.7115473  63.1564356  65.3206820  28.0623907
  62.6201713  64.8697559  28.7145503  62.5681065  65.4552729  27.3194371
  61.4512900  82.0870870  21.9568566  61.6909498  82.7189394  22.6347584
  60.6082096  81.7358910  22.2433925  62.5666615  64.7795472  10.6250371
  61.6896082  64.6584273  10.2612617  63.0424368  63.9881550  10.3729259
  72.4339608  73.2348540  27.3948826  71.5466387  72.8974462  27.5175225
  73.0038159  72.5031571  27.6317592  54.0868755  69.5672632  20.7191878
  54.7739795  69.2534362  20.1312893  53.9316884  70.4713996  20.4459129
  58.8903478  64.4562828  25.1476901  58.8061666  63.8488498  24.4127311
  58.0686184  64.9471846  25.1486398  65.9640762  77.8949992  24.3610070
  65.8910933  78.7004964  24.8729374  65.5218155  78.0941958  23.5358091
  65.7530541  77.1321762  17.8712891  64.9698063  77.6743442  17.9651116
  66.4523286  77.6495742  18.2707132  69.0627191  62.9416392  20.5147097
  69.5595891  62.1886354  20.1948167  68.2914173  62.9780708  19.9490306
  76.9156949  68.6456757  22.1565388  76.9046825  69.5281473  21.7859321
  76.0474328  68.2928308  21.9619925  68.4239445  77.7936826  26.5168228
  69.1367417  78.4284291  26.4444130  67.9329474  77.8900692  25.7008230
  70.1456972  71.6988079  18.0885520  69.2113251  71.8189541  17.9190224
  70.3233641  70.7960546  17.8245530  65.6462160  65.0833775  20.2418781
  65.2759948  64.5304815  20.9299687  66.1421253  64.4791908  19.6893781
  73.5329523  67.5405398  18.6235554  73.9989976  68.3733390  18.5495857
  73.9837024  67.0750380  19.3280813  63.4751359  75.5431270  27.3373799
  64.1760818  76.1767753  27.4903193  63.0046474  75.8846001  26.5769438
  71.6005755  73.8849219  15.6221706  71.8765598  73.7705814  16.5315580
  70.7310253  73.4866704  15.5833879  71.5046186  59.9085985  22.6626455
  70.5909266  60.1390212  22.8308662  71.9339288  59.9924429  23.5140488
  71.2752645  68.0975877  25.1626349  70.6224095  68.3451785  24.5078802
  71.6533025  67.2840015  24.8288827  68.2359819  78.1335570  19.2654520
  68.4182213  77.3157226  19.7282272  69.0592805  78.3503263  18.8279410
  68.5701984  77.0603755  16.5269568  69.0989751  76.5496210  15.9139730
  68.8330204  76.7446286  17.3915101  67.3240218  68.8395688  31.6492387
  66.6480855  68.7389818  32.3194762  68.1467852  68.6834902  32.1128384
  59.0719077  75.0767625  24.2704902  59.6572514  74.3311313  24.4032806
  58.8743915  75.3871581  25.1541566  61.9257732  78.1118872  19.2867344
  61.2568107  78.5965000  18.8031384  61.7870602  78.3588093  20.2010723
  53.6636732  67.6473225  22.9909345  53.7020831  67.1136816  23.7846463
  53.1577024  67.1208430  22.3720322  66.0663001  80.1462616  25.8850003
  66.6181309  80.3094237  26.6499088  66.4069194  80.7367053  25.2130027
  61.0427494  62.4937765  26.4871887  61.1068820  63.3552596  26.0749285
  60.9794614  61.8811767  25.7544246  60.5179766  64.5660898  30.1344921
  61.1451805  64.1837975  30.7482446  59.6607685  64.3475100  30.5000614
  70.9173875  74.9723873  31.7398657  71.4613779  75.5853831  31.2453612
  70.3360720  75.5303452  32.2565670  57.2945309  66.3737327  16.0663276
  57.5898750  65.4648006  16.0130330  56.3933345  66.3525067  15.7444279
  69.2031388  78.0944591  22.8713685  69.0782527  77.2934331  22.3624630
  69.8610479  78.5890785  22.3827655  60.8239556  64.4493324  22.0490825
  60.1026142  65.0629291  21.9098298  61.6132812  64.9851089  21.9707471
  71.2666296  75.8953611  24.4993235  70.3196632  75.7758962  24.4271562
  71.6149069  75.0076109  24.5819496  63.6265870  61.7847750  28.3231477
  64.1500271  62.0310047  29.0857786  63.4078203  62.6167785  27.9034614
  59.0233151  64.0551425  16.1902601  58.6945857  63.1748804  16.0077707
  59.3772521  63.9999093  17.0778991  68.2712730  75.6906327  20.6997587
  68.1237692  74.7623035  20.8805157  69.0966223  75.7126418  20.2154662
  62.1374974  64.3424395  16.5578079  62.4771046  64.8710316  15.8356688
  62.5847094  64.6804801  17.3336646  71.8746851  76.5134886  21.7862460
  72.7993399  76.3077748  21.6486911  71.7062155  76.2651287  22.6951801
  64.8318415  62.7261445  26.0081147  64.4915235  61.9269258  26.4101827
  64.1257421  63.0263156  25.4357980  65.4834886  59.8110758  24.4608470
  66.3060956  59.3371236  24.3387361  65.7272950  60.5901241  24.9607157
  64.1243121  62.8399016  14.7571372  64.8451483  63.2180269  14.2535089
  63.5008425  63.5587893  14.8606350  68.2674244  63.5444165  15.6929704
  68.4837858  64.4268803  15.3918532  67.7868311  63.1530379  14.9635346
  63.0073465  66.5029878  22.2700449  62.8618046  66.8170181  23.1624730
  62.5298669  67.1214779  21.7171347  64.8669848  63.4932426  22.3181338
  64.8531417  62.5973520  21.9813636  65.5842276  63.5003090  22.9519624
  66.7195979  63.9269767  24.3634466  66.4613757  64.8486837  24.3618796
  66.1881019  63.5300201  25.0534930  71.6642168  77.0320554  17.1424551
  71.8379045  76.4666976  16.3898404  72.1571059  77.8321449  16.9604041
  57.4819127  69.0435223  25.2088110  56.9372595  69.8195031  25.3408384
  58.3598477  69.3906027  25.0507231  64.2706744  62.3746807  17.5868909
  64.3922655  61.4463453  17.7859796  63.9808786  62.3885493  16.6747224
  67.1397934  60.0601717  20.7235628  67.1619631  60.1241050  19.7687608
  67.5565993  59.2206226  20.9176135  77.5181559  69.7956977  18.7614851
  77.9612705  69.0464302  18.3633974  76.6408069  69.7867113  18.3788583
  72.6517340  76.3487318  14.2421449  73.3468245  76.9694011  14.4608764
  72.9940490  75.4982669  14.5173827  58.2685149  68.1705119  28.1018267
  57.5266885  68.3187754  28.6882897  57.9477894  68.4313385  27.2385016
  74.5508763  73.7987024  15.7708780  75.0760087  74.1374296  15.0458100
  74.4631116  72.8634039  15.5871915  66.2128812  77.7121097  27.8998657
  66.5215938  77.4670244  28.7721356  67.0104294  77.9167736  27.4117527
  66.2349424  79.8659007  20.1304033  65.7954414  79.3735386  20.8236890
  66.9857541  79.3231975  19.8896109  58.7141763  76.0570548  20.1328662
  59.5399783  75.7574320  19.7527305  58.3635815  75.2878170  20.5818450
  63.6823296  75.4097016  22.2026335  63.0603305  74.7467721  21.9028563
  64.3528163  75.4358148  21.5199983  56.9150368  73.9756874  21.0917595
  56.0782276  73.5479049  20.9101596  56.8874013  74.1689318  22.0288386
  63.7547824  63.8878804  31.7958841  63.8035979  64.7640927  31.4136611
  64.2970338  63.3456197  31.2230484  74.2402669  74.4319927  31.0759978
  73.4498213  74.4144066  30.5364478  74.0036024  74.9708221  31.8309015
  63.2436803  73.9600939  15.6784796  63.3924923  74.6436404  15.0251468
  64.0503246  73.9406029  16.1934251  71.6504307  67.2643322  29.7052013
  72.5514169  67.1249786  29.4136011  71.7252281  67.4297776  30.6450191
  65.9847112  64.6410176  28.5505200  65.1150421  64.9343742  28.2787788
  66.2206592  65.2250621  29.2712463  75.8618741  73.7009335  28.6334728
  75.5703549  74.0639316  29.4698189  75.2490872  72.9876343  28.4548060
  77.0614423  71.2662215  21.1537299  77.8961315  71.7052019  21.3174859
  77.1973552  70.7900868  20.3345544  74.1105929  68.8241950  27.1014786
  74.5860051  69.0169596  26.2933638  73.1871495  68.8801136  26.8558170
  60.9989436  69.9866117  16.6845865  60.7535478  69.0828447  16.8826075
  61.1685351  69.9883267  15.7425343  68.6886146  60.8589793  26.0670620
  69.2068090  61.5950820  25.7417109  68.3341279  61.1653787  26.9017379
  60.2685084  65.7194475  14.1832026  59.5754328  65.7938830  13.5272062
  60.0236835  64.9554818  14.7053543  68.9398740  57.2790076  21.5871517
  69.2200494  56.6113265  22.2131943  69.7249347  57.4719171  21.0746181
  66.7432209  76.4549070  13.1496543  66.1706176  77.0739257  12.6967015
  67.3165002  77.0048431  13.6836465  72.8107598  65.7007710  25.3343092
  73.7625021  65.8005808  25.3555316  72.6411049  64.9085978  25.8441176
  70.8321978  62.7863293  25.5202493  70.2371910  63.0668306  24.8248981
  70.5471675  63.2757194  26.2919234  69.9629468  76.7386220  14.2805125
  70.8960142  76.6731782  14.4838001  69.8752681  77.5742487  13.8219658
  72.5917485  76.0552090  11.2409073  72.5131117  75.7211954  12.1344831
  73.4127152  76.5473858  11.2400545  75.2895676  68.9213830  24.4485392
  75.2571996  67.9829830  24.6345075  75.8996300  68.9997866  23.7151216
  67.1279007  67.7909883  10.4912596  68.0738112  67.6616091  10.5601014
  66.7493252  67.0524544  10.9682024  75.4390165  65.7124873  24.4943675
  74.9229213  64.9283330  24.3073604  76.3230113  65.3843590  24.6590194
  73.1000892  59.4565889  20.4539487  72.9025713  59.1480977  21.3382819
  73.7100597  60.1827527  20.5837417  81.1072226  69.9829836  23.5891428
  81.8375615  69.7215125  24.1499132  80.4979172  69.2458558  23.6293496
  79.1887523  68.1237699  24.1865880  78.4620687  67.9893664  23.5782371
  78.7734810  68.4314528  24.9922598  67.0117700  71.8427629  31.9513253
  67.9320709  72.0206228  32.1453299  66.9767283  70.8983674  31.7992952
  65.3121924  65.7159859  10.4267481  64.4053380  65.4192972  10.5030194
  65.5897905  65.4189677   9.5601767  56.2299865  67.0366222  20.8766527
  55.9102649  66.1831531  20.5840901  55.6833293  67.2514800  21.6324495
  60.0079772  69.7528663  24.5936034  60.2265782  70.6845771  24.6124068
  60.4205546  69.3936638  25.3790838  66.9283990  60.2596749  16.5811722
  66.1184718  59.9143834  16.9566968  67.6168407  59.9504292  17.1699334
  68.8574538  59.3374795  18.2036019  69.4105577  59.7570249  18.8626042
  69.0944625  58.4110544  18.2458975  64.8807637  65.3261869  33.9838783
  64.7804364  66.2756226  33.9150874  64.6629180  64.9980108  33.1114853
  64.0820709  62.5746794  10.5679460  64.9439873  62.9001692  10.8275277
  64.2671053  61.7878290  10.0552526  56.0988125  70.6569134  22.8459649
  55.4051596  70.2423087  22.3329603  56.8461116  70.6989670  22.2493068
  72.2353345  61.4475321  17.7114683  71.6552014  62.1060125  17.3292735
  71.9689278  60.6252665  17.3002100  70.6856912  60.8480378  19.9136003
  71.1856690  60.9596913  19.1050322  71.3292520  60.5441431  20.5536812
  64.7438908  68.7559008  32.8003844  64.2605989  69.5559368  33.0067733
  64.8299847  68.7666953  31.8471288  58.0124867  70.5887388  20.7225664
  57.9895555  70.6875075  19.7707547  58.3225504  71.4352538  21.0442830
  60.6712245  72.6463543  24.8372278  61.6255499  72.6147485  24.7702210
  60.4724769  72.1854166  25.6522504  61.2611627  71.2164659  27.4043076
  62.0804516  71.7108737  27.4277913  61.5348435  70.2996627  27.3760643
  71.0178223  63.6075411  16.7671031  70.1304078  63.8925062  16.5491226
  71.4332212  63.4469174  15.9198308  74.3692759  63.6321932  20.4825370
  75.1453150  64.1218384  20.7549987  73.6440894  64.0579986  20.9397240
  76.8065318  64.3449551  21.5399311  77.4009809  64.1045287  20.8292619
  76.8791902  63.6256682  22.1672847  59.0262474  78.1883162  21.8542476
  58.8916942  77.4283563  21.2880474  58.6094536  78.9124062  21.3871265
  70.1621437  73.3720086  10.8619051  70.8657287  73.5770088  11.4776707
  69.4384086  73.9396848  11.1268135  70.9919247  69.1229947  16.9821321
  70.9354448  69.5798498  16.1428954  71.5447590  68.3620631  16.8044164
  74.8024053  64.9119679  17.8071441  74.5460987  64.5116314  18.6379649
  74.1776921  65.6263473  17.6821580  79.1136391  67.6515752  20.3142732
  78.5535949  67.7208941  21.0874294  78.5079894  67.4756737  19.5942229
  62.1831600  79.0852479  22.0660919  62.0663984  80.0297912  21.9639609
  61.3624046  78.7826041  22.4546718  72.0708134  73.8102615  12.9117511
  72.9053738  73.3783813  12.7294986  71.9092477  73.6384629  13.8394406
  71.7254026  70.3134728  14.2773851  71.6702830  70.1479000  13.3362295
  71.1000082  71.0210761  14.4336040  56.5146541  65.5502793  28.1035273
  57.1605405  65.0401746  28.5922498  56.3063692  66.2871474  28.6778698
  69.0399934  72.6183640  33.6027413  69.9091093  72.7924292  33.2414048
  68.5606685  73.4378057  33.4803143  65.0350152  59.8142837  13.8559169
  65.0228822  60.7584677  14.0127440  65.9273574  59.6312983  13.5618630
  63.2086114  79.7380741  25.2816847  64.1113361  79.7704351  25.5983342
  62.9823484  78.8081192  25.2963183  64.9639716  78.4911728  21.9426926
  64.0135347  78.4913589  21.8291298  65.2672202  77.7444462  21.4262960
  68.8502271  56.4085614  18.1105106  68.0834667  55.8544100  18.2561788
  69.2612976  56.4807483  18.9719257  60.8544032  62.6970410  32.2010287
  61.7175494  62.3407214  32.4113612  60.2809443  62.3584304  32.8885691
  80.6992409  84.3272266  23.0072688  81.3370819  84.2079013  22.3036028
  80.5813252  85.2753110  23.0660640  77.5082116  84.2799694  22.9434213
  77.1700627  84.1640759  22.0554748  78.3771884  83.8790859  22.9235219
  73.3668931  86.1335170  18.9331104  72.8033796  86.0425107  18.1647391
  73.2521326  85.3135075  19.4133596  77.9901899  85.4334546  28.9020418
  77.9790539  85.0387344  28.0300922  78.1522538  84.7000618  29.4954190
  70.9133363  87.6286362  21.7715324  71.7054655  87.2877187  21.3561623
  71.1530013  87.7381337  22.6917477  78.9468490  89.8006138  14.2445569
  78.2956470  90.3860219  13.8579582  79.7412853  90.3312333  14.3040606
  72.8724117  86.8895275  14.6432703  73.6454993  86.3424262  14.5045579
  73.2249516  87.7539525  14.8547164  74.7109160  88.2171658  27.8499602
  74.4199026  89.1217288  27.7346269  75.3466144  88.2588185  28.5643672
  75.6365367  85.5948506  24.4400962  76.2328939  85.3704528  23.7257925
  75.6940338  84.8533252  25.0426410  75.2090395  83.0487941  12.2751153
  75.4615916  82.5269463  11.5134616  74.2714954  82.8854087  12.3777836
  80.2533678  82.0523720  20.0825896  81.0396767  81.6343143  19.7316313
  80.5172382  82.9569812  20.2507544  80.4243755  87.4896570  14.7814553
  79.7889588  87.5631197  15.4935458  80.0941162  88.0790169  14.1033632
  85.6542105  81.9898953  20.9858875  86.3867277  81.4198170  21.2196704
  84.8981461  81.6020553  21.4265380  74.9286684  84.9516047  14.4775528
  74.8122942  84.2760951  15.1456612  75.0388944  84.4648421  13.6607681
  77.2718225  84.4126194  18.1822217  76.9076432  83.8856815  18.8935139
  78.1285341  84.0224664  18.0088702  83.1767525  75.7020527  25.4453483
  82.8450850  76.5715938  25.2214698  82.5813139  75.3856811  26.1247514
  76.9123712  79.4416094  13.1783566  77.0798114  80.3096331  13.5454037
  76.7220881  79.6043376  12.2544855  79.6699045  87.9033073  24.8449396
  79.3699768  88.8058112  24.7365203  79.3250104  87.6365256  25.6970549
  73.1211526  84.3546870  20.8786100  72.1962023  84.2223084  21.0863792
  73.3695939  85.1341089  21.3756043  83.0696189  80.4215613  22.5246833
  82.1613066  80.3531022  22.2305594  83.0183784  80.8987558  23.3528659
  76.8912932  81.8973752  14.1630232  76.7712558  82.3430802  15.0015713
  76.1965521  82.2459069  13.6043771  70.4820337  83.9980143  21.7129889
  70.6112718  84.2514622  22.6269301  69.8017789  84.5907851  21.3934544
  74.6519825  94.6677393  17.8120364  74.5743854  95.6185219  17.8908844
  74.0481468  94.3223266  18.4695290  77.1437054  81.8405259  30.4681731
  76.3670388  82.3999179  30.4584595  77.7827617  82.3262042  30.9896601
  84.9357835  78.6232052  24.3024707  84.2932215  78.9164585  23.6564502
  84.4312764  78.5084972  25.1077904  82.5897999  82.3695225  14.9910566
  83.5015855  82.6022612  14.8158264  82.0807646  82.9532269  14.4285645
  75.3983427  84.6490712  30.0299698  76.1398111  85.1875756  29.7534521
  74.6920412  85.2757001  30.1871249  80.8738766  86.7919853  28.6271859
  81.2822122  86.3502263  27.8826491  80.1516028  86.2172480  28.8806052
  77.2269836  81.7292459  26.0005416  78.0731032  82.1531873  26.1440065
  77.1668474  81.0726084  26.6943979  81.1967581  87.3521043  22.3824148
  80.5676443  87.5166757  21.6800216  80.8093243  87.7662653  23.1535112
  85.0756813  88.2875481  19.7368512  84.3907851  88.6674383  19.1865545
  85.1600662  88.8970808  20.4700459  80.3769282  79.3896828  27.6586590
  80.1330214  80.1438888  27.1220865  80.6529212  79.7682175  28.4933837
  82.3307744  85.9335440  26.3363855  82.5424640  86.5767200  25.6598236
  82.2837493  85.0997757  25.8685785  79.9333973  78.5453261  23.2400427
  79.0718452  78.8434514  23.5317165  79.9596408  78.7623660  22.3081460
  76.7495543  87.0895451  19.6474233  77.2133888  87.3683154  18.8578855
  76.4852341  86.1878896  19.4647324  73.6419624  86.6366933  22.5853996
  74.2120981  87.0654201  21.9471481  74.2327736  86.3549518  23.2838182
  75.6864429  83.2118604  16.4563798  76.3888472  83.6639647  16.9237724
  75.3545057  82.5702423  17.0843691  74.1344790  81.8030360  30.8315008
  73.5043451  82.4846641  31.0650404  74.0280878  81.6913442  29.8868146
  69.4289763  81.4702156  21.7580932  68.6388817  81.7259685  21.2821042
  69.9201010  82.2850494  21.8632972  83.4453572  88.8107396  24.5086213
  84.2671016  88.4087583  24.2268894  83.4415975  88.7075630  25.4602328
  71.3804508  81.8346736  18.7164408  70.5835672  81.9465430  19.2347904
  71.1530100  82.1733388  17.8505299  77.2110176  88.3591439  26.6646923
  77.2754608  88.8211846  27.5005095  76.5021100  87.7288804  26.7929233
  67.7127466  81.7232647  24.1895922  67.9635504  82.6079657  24.4553498
  68.2487014  81.5437248  23.4171014  91.5359565  85.1546144  20.8571184
  90.7823274  84.5853542  20.7015188  91.6707107  85.1208809  21.8041819
  76.9258194  90.0259546  16.5325903  76.7903868  90.8711082  16.9610751
  77.4668006  90.2278824  15.7691837  73.4125533  76.1051126  33.1940259
  73.0192479  75.5517325  33.8687903  74.2291673  76.4161705  33.5846776
  70.3787591  87.5434984  17.1053828  70.8912111  88.3378235  17.2559393
  71.0310304  86.8461275  17.0387430  72.1882476  90.6600741  19.1876582
  72.3649104  91.5818705  18.9997566  72.9839309  90.3459160  19.6170961
  76.3293494  77.5209005  30.7860515  77.0703208  78.1216158  30.7064978
  76.5611417  76.7786643  30.2278558  71.4734832  82.7065373  29.0638745
  71.3588347  81.8050630  29.3645844  70.6179350  82.9529069  28.7123561
  78.5526670  90.6483113  30.6626245  78.1090524  89.8619491  30.3447150
  79.2143883  90.8362263  29.9970136  73.3113791  92.1778914  25.1886924
  73.8621216  92.0495978  24.4163918  72.4725267  92.4773804  24.8381817
  80.6507908  90.9285913  28.6907647  80.6326383  91.7494794  28.1987916
  81.5727828  90.8039988  28.9157788  77.1080962  88.4430042  29.5331155
  77.6409299  87.6818330  29.3030463  76.5795043  88.1503694  30.2755310
  80.2750657  73.5490108  25.0624797  79.9314926  74.4391750  24.9863907
  80.6429620  73.3591766  24.1994382  68.3436508  85.8723639  17.8813399
  69.1811730  86.2820647  17.6647107  68.5214775  84.9323081  17.8513593
  80.2400940  83.5398719  13.5697232  79.7247563  84.3103324  13.8085619
  79.9678248  82.8663856  14.1930293  77.8248051  78.3848420  18.6282470
  76.9689647  77.9955271  18.4488109  78.2375003  78.4640381  17.7682256
  79.3547197  75.9194763  23.0274030  78.8511993  75.8824899  22.2141835
  79.6477804  76.8287506  23.0870687  75.5990083  76.0033493  22.0340212
  76.4643080  75.8076302  21.6746101  75.6667592  75.7743845  22.9609569
  85.2135214  86.2931074  15.5050405  84.4364657  85.9542234  15.0605567
  85.8926695  86.2983697  14.8305370  80.0287243  81.4125811  15.3957013
  79.7237379  81.7271961  16.2467156  80.9817685  81.4907231  15.4384346
  78.4733675  87.5716035  17.0449967  77.9455036  86.8368794  16.7323205
  77.9721178  88.3490711  16.7989935  83.4526521  85.7665055  22.1617013
  82.7950195  86.4564317  22.2497142  84.2566920  86.1561487  22.5051000
  73.2052402  78.2335701  19.4056579  73.7796154  78.0110883  18.6729772
  73.7923385  78.3024396  20.1585180  82.2631980  84.1209428  20.2120955
  82.7763861  84.7539420  20.7142665  82.9133204  83.5210623  19.8464315
  73.5321990  80.2640162  13.4252464  72.6959302  80.6014849  13.7461739
  73.3926759  80.1289142  12.4879601  75.5075070  75.1076950  18.1331648
  74.8539482  74.7925967  17.5088263  75.4655544  74.4852690  18.8591471
  76.6186275  85.3896245  10.0484940  75.7113337  85.1585499  10.2476089
  77.1157307  84.5933864  10.2358922  78.7412810  81.5958884  22.4579296
  77.8235372  81.8173831  22.3000984  79.1572954  81.6705194  21.5991003
  79.5247858  82.9950299  17.5881976  80.2719677  83.5071696  17.2789098
  79.7939448  82.6734352  18.4486369  77.7974508  85.4908840  14.5708930
  76.8885728  85.2067873  14.6681400  77.8269592  85.9107918  13.7112237
  83.0293776  89.1015429  18.3400098  82.5756103  88.2606339  18.3965288
  82.3987743  89.7376828  18.6774878  81.9726695  80.0307415  19.5700765
  81.2349452  79.5184802  19.9011008  82.2253469  79.5907797  18.7584042
  81.4726715  90.9391926  19.2749916  81.7649689  91.4996983  18.5562282
  81.9825336  91.2320487  20.0303075  82.0738323  72.8083667  20.1642534
  82.3797200  71.9481031  19.8768450  82.7990928  73.4001288  19.9641528
  68.3662679  83.2114354  18.5524132  68.1687079  82.6183715  17.8275199
  67.8109343  82.9066564  19.2700071  76.3459402  83.1037461  20.6718726
  76.4008012  82.1511297  20.5961202  75.5350605  83.2596900  21.1560024
  77.4950596  87.0317584  11.9097009  77.0570026  86.3153443  11.4502646
  78.2361037  87.2593698  11.3482100  74.2851762  81.7214520  18.4309104
  73.4719628  82.0208691  18.8374297  74.7810757  81.3270209  19.1483587
  76.4360340  91.7172277  20.3643369  76.3936519  91.9433124  19.4351901
  77.3523039  91.4835652  20.5129170  79.8825974  82.1856345  27.2623998
  80.2375362  82.4127818  28.1218464  80.5298105  82.5174722  26.6401254
  85.6123711  85.3074781  17.9673327  85.4741610  85.4976377  17.0394517
  85.2559930  86.0694163  18.4241378  73.7765837  79.2932876  24.0470339
  74.4165216  79.1521635  23.3493303  72.9443368  79.0067389  23.6708941
  85.6393091  87.3751308  22.9784599  86.0729597  87.2826597  23.8267653
  86.3524671  87.3508808  22.3404615  74.5526141  88.5935306  20.1605332
  75.3466740  88.0985626  19.9587907  73.8417833  88.0653169  19.7973037
  79.3720986  90.9753402  24.5117699  79.4258008  91.5444338  25.2795415
  78.5035767  91.1455287  24.1471737  70.8608905  82.7378388  16.2365085
  69.9306493  82.6762843  16.4535047  70.9566377  82.2154341  15.4401726
  70.7794454  79.2633201  18.8243326  71.0401271  80.1778534  18.7152487
  71.6011626  78.7957643  18.9739939  72.2519379  80.6770958  25.9942151
  72.9242432  80.4688320  25.3454800  71.4249165  80.4793044  25.5547383
  86.5008640  87.4175008  25.5117484  86.6944530  88.3220819  25.7576759
  86.4009258  86.9582427  26.3456069  78.1544951  77.3032899  28.0107812
  77.5072866  78.0022849  27.9172288  78.9245966  77.7369043  28.3784060
  81.5623749  87.5681751  31.0858365  81.4109255  87.3392303  30.1688449
  81.5528428  88.5252352  31.0989710  78.3309085  85.1413664  26.0704631
  79.2601145  85.2924823  25.8973599  77.9100115  85.2297685  25.2153278
  77.1297417  89.1664328  23.8403169  76.9908503  88.7983113  24.7129107
  76.3412013  89.6811968  23.6687127  77.7245569  94.2673425  15.1828705
  77.8997325  93.7961468  15.9974328  77.0378357  94.8939191  15.4109966
  78.6802632  88.5445931  21.2292007  78.3452465  88.5046701  22.1249657
  78.1806578  87.8790647  20.7562417  72.6546876  83.9513561  26.7544588
  72.5166674  83.2193800  27.3556127  73.5651800  83.8622461  26.4728776
  81.6161824  85.8901965  11.5029066  80.9990994  85.1648793  11.4062119
  81.1478312  86.6511326  11.1596141  75.2829177  83.6633520  26.2428268
  75.9928795  83.0226712  26.2014886  75.2398485  83.9146415  27.1654448
  83.2715956  90.6000874  29.1634847  83.2128502  89.9160094  28.4965430
  83.6735474  91.3419864  28.7115473  73.9958111  80.6498738  28.0623907
  73.4595468  80.1989477  28.7145503  73.4074819  80.7844647  27.3194371
  72.2906654  97.4162787  21.9568566  72.5303253  98.0481312  22.6347584
  71.4475851  97.0650827  22.2433925  73.4060370  80.1087390  10.6250371
  72.5289836  79.9876190  10.2612617  73.8818123  79.3173468  10.3729259
  83.2733363  88.5640458  27.3948826  82.3860142  88.2266379  27.5175225
  83.8431914  87.8323489  27.6317592  64.9262510  84.8964549  20.7191878
  65.6133550  84.5826279  20.1312893  64.7710639  85.8005914  20.4459129
  69.7297232  79.7854746  25.1476901  69.6455421  79.1780415  24.4127311
  68.9079938  80.2763764  25.1486398  76.8034516  93.2241910  24.3610070
  76.7304688  94.0296881  24.8729374  76.3611909  93.4233876  23.5358091
  76.5924296  92.4613680  17.8712891  75.8091818  93.0035360  17.9651116
  77.2917041  92.9787660  18.2707132  79.9020946  78.2708309  20.5147097
  80.3989645  77.5178272  20.1948167  79.1307927  78.3072626  19.9490306
  87.7550703  83.9748675  22.1565388  87.7440580  84.8573390  21.7859321
  86.8868083  83.6220226  21.9619925  79.2633200  93.1228744  26.5168228
  79.9761172  93.7576209  26.4444130  78.7723228  93.2192610  25.7008230
  80.9850727  87.0279997  18.0885520  80.0507005  87.1481459  17.9190224
  81.1627395  86.1252463  17.8245530  76.4855915  80.4125692  20.2418781
  76.1153702  79.8596733  20.9299687  76.9815007  79.8083826  19.6893781
  84.3723278  82.8697316  18.6235554  84.8383730  83.7025307  18.5495857
  84.8230778  82.4042297  19.3280813  74.3145113  90.8723187  27.3373799
  75.0154573  91.5059670  27.4903193  73.8440228  91.2137919  26.5769438
  82.4399509  89.2141137  15.6221706  82.7159353  89.0997732  16.5315580
  81.5704008  88.8158622  15.5833879  82.3439941  75.2377903  22.6626455
  81.4303020  75.4682130  22.8308662  82.7733042  75.3216347  23.5140488
  82.1146399  83.4267795  25.1626349  81.4617849  83.6743702  24.5078802
  82.4926779  82.6131933  24.8288827  79.0753573  93.4627488  19.2654520
  79.2575968  92.6449144  19.7282272  79.8986559  93.6795180  18.8279410
  79.4095739  92.3895673  16.5269568  79.9383505  91.8788128  15.9139730
  79.6723958  92.0738203  17.3915101  78.1633972  84.1687606  31.6492387
  77.4874609  84.0681735  32.3194762  78.9861606  84.0126820  32.1128384
  69.9112831  90.4059542  24.2704902  70.4966268  89.6603230  24.4032806
  69.7137670  90.7163499  25.1541566  72.7651487  93.4410790  19.2867344
  72.0961862  93.9256917  18.8031384  72.6264356  93.6880010  20.2010723
  64.5030486  82.9765143  22.9909345  64.5414586  82.4428733  23.7846463
  63.9970779  82.4500348  22.3720322  76.9056755  95.4754533  25.8850003
  77.4575063  95.6386155  26.6499088  77.2462949  96.0658971  25.2130027
  71.8821248  77.8229683  26.4871887  71.9462575  78.6844514  26.0749285
  71.8188369  77.2103685  25.7544246  71.3573521  79.8952816  30.1344921
  71.9845560  79.5129893  30.7482446  70.5001440  79.6767018  30.5000614
  81.7567629  90.3015791  31.7398657  82.3007533  90.9145749  31.2453612
  81.1754474  90.8595369  32.2565670  68.1339064  81.7029245  16.0663276
  68.4292505  80.7939923  16.0130330  67.2327099  81.6816984  15.7444279
  80.0425142  93.4236509  22.8713685  79.9176282  92.6226249  22.3624630
  80.7004233  93.9182702  22.3827655  71.6633311  79.7785241  22.0490825
  70.9419896  80.3921209  21.9098298  72.4526566  80.3143006  21.9707471
  82.1060051  91.2245529  24.4993235  81.1590386  91.1050880  24.4271562
  82.4542824  90.3368027  24.5819496  74.4659624  77.1139668  28.3231477
  74.9894026  77.3601964  29.0857786  74.2471957  77.9459703  27.9034614
  69.8626905  79.3843342  16.1902601  69.5339611  78.5040721  16.0077707
  70.2166276  79.3291011  17.0778991  79.1106484  91.0198245  20.6997587
  78.9631446  90.0914953  20.8805157  79.9359978  91.0418336  20.2154662
  72.9768728  79.6716312  16.5578079  73.3164801  80.2002233  15.8356688
  73.4240849  80.0096718  17.3336646  82.7140606  91.8426804  21.7862460
  83.6387153  91.6369665  21.6486911  82.5455909  91.5943205  22.6951801
  75.6712169  78.0553363  26.0081147  75.3308990  77.2561176  26.4101827
  74.9651175  78.3555074  25.4357980  76.3228641  75.1402675  24.4608470
  77.1454710  74.6663154  24.3387361  76.5666705  75.9193159  24.9607157
  74.9636875  78.1690934  14.7571372  75.6845238  78.5472187  14.2535089
  74.3402180  78.8879811  14.8606350  79.1067998  78.8736083  15.6929704
  79.3231613  79.7560721  15.3918532  78.6262066  78.4822296  14.9635346
  73.8467220  81.8321796  22.2700449  73.7011800  82.1462099  23.1624730
  73.3692423  82.4506696  21.7171347  75.7063603  78.8224344  22.3181338
  75.6925171  77.9265437  21.9813636  76.4236031  78.8295008  22.9519624
  77.5589733  79.2561684  24.3634466  77.3007511  80.1778755  24.3618796
  77.0274774  78.8592119  25.0534930  82.5035922  92.3612471  17.1424551
  82.6772800  91.7958894  16.3898404  82.9964813  93.1613366  16.9604041
  68.3212882  84.3727140  25.2088110  67.7766350  85.1486948  25.3408384
  69.1992232  84.7197945  25.0507231  75.1100499  77.7038724  17.5868909
  75.2316410  76.7755370  17.7859796  74.8202541  77.7177410  16.6747224
  77.9791689  75.3893635  20.7235628  78.0013386  75.4532968  19.7687608
  78.3959748  74.5498143  20.9176135  88.3575313  85.1248894  18.7614851
  88.8006459  84.3756219  18.3633974  87.4801824  85.1159031  18.3788583
  83.4911095  91.6779236  14.2421449  84.1861999  92.2985928  14.4608764
  83.8334245  90.8274587  14.5173827  69.1078904  83.4997037  28.1018267
  68.3660640  83.6479672  28.6882897  68.7871648  83.7605302  27.2385016
  85.3902518  89.1278941  15.7708780  85.9153842  89.4666214  15.0458100
  85.3024870  88.1925957  15.5871915  77.0522566  93.0413015  27.8998657
  77.3609693  92.7962162  28.7721356  77.8498048  93.2459653  27.4117527
  77.0743178  95.1950925  20.1304033  76.6348169  94.7027303  20.8236890
  77.8251295  94.6523892  19.8896109  69.5535517  91.3862465  20.1328662
  70.3793537  91.0866237  19.7527305  69.2029569  90.6170088  20.5818450
  74.5217051  90.7388934  22.2026335  73.8997060  90.0759639  21.9028563
  75.1921918  90.7650066  21.5199983  67.7544122  89.3048792  21.0917595
  66.9176031  88.8770966  20.9101596  67.7267768  89.4981235  22.0288386
  74.5941578  79.2170722  31.7958841  74.6429734  80.0932844  31.4136611
  75.1364092  78.6748115  31.2230484  85.0796424  89.7611845  31.0759978
  84.2891967  89.7435984  30.5364478  84.8429778  90.3000139  31.8309015
  85.1994299  86.6104311  28.3892707  85.2492304  86.4454319  29.3308230
  85.0908222  85.7431570  27.9990588  74.0830558  89.2892857  15.6784796
  74.2318678  89.9728321  15.0251468  74.8897001  89.2697947  16.1934251
  82.4898061  82.5935239  29.7052013  83.3907924  82.4541704  29.4136011
  82.5646036  82.7589694  30.6450191  76.8240867  79.9702094  28.5505200
  75.9544176  80.2635660  28.2787788  77.0600347  80.5542539  29.2712463
  86.7012496  89.0301253  28.6334728  86.4097304  89.3931233  29.4698189
  86.0884627  88.3168261  28.4548060  87.9008178  86.5954133  21.1537299
  88.7355069  87.0343937  21.3174859  88.0367307  86.1192786  20.3345544
  84.9499684  84.1533867  27.1014786  85.4253805  84.3461514  26.2933638
  84.0265249  84.2093053  26.8558170  71.8383191  85.3158035  16.6845865
  71.5929232  84.4120365  16.8826075  72.0079105  85.3175185  15.7425343
  79.5279900  76.1881711  26.0670620  80.0461844  76.9242738  25.7417109
  79.1735033  76.4945704  26.9017379  71.1078838  81.0486392  14.1832026
  70.4148083  81.1230747  13.5272062  70.8630590  80.2846736  14.7053543
  79.7792495  72.6081994  21.5871517  80.0594248  71.9405183  22.2131943
  80.5643101  72.8011089  21.0746181  77.5825963  91.7840987  13.1496543
  77.0099930  92.4031175  12.6967015  78.1558757  92.3340349  13.6836465
  83.6501353  81.0299628  25.3343092  84.6018776  81.1297725  25.3555316
  83.4804803  80.2377896  25.8441176  81.6715732  78.1155211  25.5202493
  81.0765664  78.3960223  24.8248981  81.3865429  78.6049112  26.2919234
  80.8023223  92.0678138  14.2805125  81.7353896  92.0023699  14.4838001
  80.7146436  92.9034404  13.8219658  86.1289431  84.2505747  24.4485392
  86.0965751  83.3121748  24.6345075  86.7390054  84.3289784  23.7151216
  77.9672762  83.1201800  10.4912596  78.9131866  82.9908008  10.5601014
  77.5887007  82.3816462  10.9682024  86.2783919  81.0416791  24.4943675
  85.7622968  80.2575247  24.3073604  87.1623868  80.7135507  24.6590194
  83.9394646  74.7857806  20.4539487  83.7419467  74.4772894  21.3382819
  84.5494352  75.5119445  20.5837417  91.9465981  85.3121754  23.5891428
  92.6769369  85.0507042  24.1499132  91.3372926  84.5750476  23.6293496
  90.0281278  83.4529617  24.1865880  89.3014441  83.3185582  23.5782371
  89.6128565  83.7606445  24.9922598  77.8511454  87.1719546  31.9513253
  78.7714464  87.3498145  32.1453299  77.8161037  86.2275592  31.7992952
  76.1515679  81.0451777  10.4267481  75.2447134  80.7484889  10.5030194
  76.4291660  80.7481595   9.5601767  67.0693619  82.3658140  20.8766527
  66.7496403  81.5123448  20.5840901  66.5227047  82.5806718  21.6324495
  70.8473527  85.0820581  24.5936034  71.0659536  86.0137689  24.6124068
  71.2599300  84.7228555  25.3790838  77.7677744  75.5888666  16.5811722
  76.9578473  75.2435751  16.9566968  78.4562161  75.2796210  17.1699334
  79.6968293  74.6666713  18.2036019  80.2499331  75.0862167  18.8626042
  79.9338379  73.7402461  18.2458975  75.7201392  80.6553787  33.9838783
  75.6198119  81.6048144  33.9150874  75.5022934  80.3272026  33.1114853
  74.9214463  77.9038712  10.5679460  75.7833627  78.2293610  10.8275277
  75.1064807  77.1170208  10.0552526  66.9381879  85.9861051  22.8459649
  66.2445351  85.5715004  22.3329603  67.6854870  86.0281588  22.2493068
  83.0747100  76.7767238  17.7114683  82.4945769  77.4352042  17.3292735
  82.8083032  75.9544583  17.3002100  81.5250666  76.1772296  19.9136003
  82.0250445  76.2888830  19.1050322  82.1686274  75.8733349  20.5536812
  75.5832662  84.0850926  32.8003844  75.0999744  84.8851286  33.0067733
  75.6693601  84.0958870  31.8471288  68.8518622  85.9179305  20.7225664
  68.8289310  86.0166993  19.7707547  69.1619258  86.7644456  21.0442830
  71.5105999  87.9755460  24.8372278  72.4649253  87.9439403  24.7702210
  71.3118523  87.5146084  25.6522504  72.1005382  86.5456576  27.4043076
  72.9198271  87.0400655  27.4277913  72.3742189  85.6288544  27.3760643
  81.8571978  78.9367329  16.7671031  80.9697833  79.2216979  16.5491226
  82.2725967  78.7761092  15.9198308  85.2086514  78.9613850  20.4825370
  85.9846904  79.4510302  20.7549987  84.4834648  79.3871904  20.9397240
  87.6459073  79.6741469  21.5399311  88.2403563  79.4337205  20.8292619
  87.7185656  78.9548599  22.1672847  69.8656228  93.5175080  21.8542476
  69.7310696  92.7575481  21.2880474  69.4488291  94.2415980  21.3871265
  81.0015191  88.7012003  10.8619051  81.7051041  88.9062006  11.4776707
  80.2777840  89.2688765  11.1268135  81.8313002  84.4521865  16.9821321
  81.7748203  84.9090416  16.1428954  82.3841344  83.6912549  16.8044164
  85.6417807  80.2411596  17.8071441  85.3854742  79.8408232  18.6379649
  85.0170676  80.9555390  17.6821580  89.9530145  82.9807670  20.3142732
  89.3929703  83.0500859  21.0874294  89.3473649  82.8048654  19.5942229
  73.0225354  94.4144397  22.0660919  72.9057738  95.3589829  21.9639609
  72.2017800  94.1117958  22.4546718  82.9101889  89.1394533  12.9117511
  83.7447493  88.7075731  12.7294986  82.7486232  88.9676546  13.8394406
  82.5647781  85.6426646  14.2773851  82.5096585  85.4770917  13.3362295
  81.9393836  86.3502679  14.4336040  67.3540296  80.8794710  28.1035273
  67.9999159  80.3693664  28.5922498  67.1457447  81.6163392  28.6778698
  79.8793688  87.9475558  33.6027413  80.7484848  88.1216210  33.2414048
  79.4000440  88.7669975  33.4803143  75.8743906  75.1434755  13.8559169
  75.8622576  76.0876595  14.0127440  76.7667328  74.9604900  13.5618630
  74.0479868  95.0672659  25.2816847  74.9507115  95.0996269  25.5983342
  73.8217238  94.1373110  25.2963183  75.8033470  93.8203645  21.9426926
  74.8529101  93.8205507  21.8291298  76.1065956  93.0736380  21.4262960
  79.6896026  71.7377531  18.1105106  78.9228422  71.1836018  18.2561788
  80.1006731  71.8099400  18.9719257  71.6937787  78.0262327  32.2010287
  72.5569248  77.6699132  32.4113612  71.1203198  77.6876222  32.8885691
  91.5386164  99.6564184  23.0072688  92.1764574  99.5370931  22.3036028
  91.4207007 100.6045028  23.0660640  88.3475870  99.6091612  22.9434213
  88.0094382  99.4932676  22.0554748  89.2165638  99.2082777  22.9235219
  88.8295653 100.7626463  28.9020418  88.8184294 100.3679262  28.0300922
  88.9916293 100.0292536  29.4954190  81.7527118 102.9578280  21.7715324
  82.5448410 102.6169104  21.3561623  81.9923768 103.0673255  22.6917477
  85.5502914 103.5463575  27.8499602  85.2592780 104.4509206  27.7346269
  86.1859899 103.5880103  28.5643672  86.4759121 100.9240424  24.4400962
  87.0722693 100.6996446  23.7257925  86.5334093 100.1825169  25.0426410
  91.0927432  97.3815637  20.0825896  91.8790522  96.9635061  19.7316313
  91.3566137  98.2861730  20.2507544  94.0161280  91.0312445  25.4453483
  93.6844605  91.9007856  25.2214698  93.4206893  90.7148729  26.1247514
  90.5092799 103.2324991  24.8449396  90.2093522 104.1350030  24.7365203
  90.1643859 102.9657174  25.6970549  83.9605281  99.6838788  20.8786100
  83.0355777  99.5515002  21.0863792  84.2089694 100.4633007  21.3756043
  93.9089943  95.7507531  22.5246833  93.0006820  95.6822939  22.2305594
  93.8577539  96.2279476  23.3528659  81.3214092  99.3272061  21.7129889
  81.4506473  99.5806540  22.6269301  80.6411543  99.9199769  21.3934544
  87.9830809  97.1697177  30.4681731  87.2064143  97.7291097  30.4584595
  88.6221372  97.6553960  30.9896601  95.7751589  93.9523969  24.3024707
  95.1325970  94.2456503  23.6564502  95.2706518  93.8376890  25.1077904
  86.2377181  99.9782630  30.0299698  86.9791866 100.5167674  29.7534521
  85.5314167 100.6048919  30.1871249  91.7132521 102.1211770  28.6271859
  92.1215877 101.6794181  27.8826491  90.9909782 101.5464398  28.8806052
  88.0663591  97.0584377  26.0005416  88.9124786  97.4823791  26.1440065
  88.0062229  96.4018001  26.6943979  91.2163036  94.7188745  27.6586590
  90.9723968  95.4730806  27.1220865  91.4922967  95.0974093  28.4933837
  93.1701499 101.2627358  26.3363855  93.3818394 101.9059118  25.6598236
  93.1231247 100.4289674  25.8685785  90.7727728  93.8745179  23.2400427
  89.9112207  94.1726432  23.5317165  90.7990163  94.0915577  22.3081460
  84.4813378 101.9658851  22.5853996  85.0514735 102.3946119  21.9471481
  85.0721490 101.6841435  23.2838182  84.9738545  97.1322278  30.8315008
  84.3437205  97.8138559  31.0650404  84.8674633  97.0205360  29.8868146
  80.2683517  96.7994074  21.7580932  79.4782571  97.0551603  21.2821042
  80.7594765  97.6142412  21.8632972  82.2198263  97.1638653  18.7164408
  81.4229426  97.2757348  19.2347904  81.9923855  97.5025306  17.8505299
  88.0503930 103.6883357  26.6646923  88.1148363 104.1503764  27.5005095
  87.3414854 103.0580722  26.7929233  78.5521220  97.0524565  24.1895922
  78.8029259  97.9371574  24.4553498  79.0880769  96.8729166  23.4171014
  84.2519288  91.4343044  33.1940259  83.8586233  90.8809242  33.8687903
  85.0685428  91.7453622  33.5846776  87.1687249  92.8500923  30.7860515
  87.9096962  93.4508076  30.7064978  87.4005171  92.1078561  30.2278558
  82.3128587  98.0357290  29.0638745  82.1982102  97.1342548  29.3645844
  81.4573104  98.2820987  28.7123561  89.3920424 105.9775031  30.6626245
  88.9484279 105.1911409  30.3447150  90.0537638 106.1654181  29.9970136
  84.1507546 107.5070832  25.1886924  84.7014971 107.3787896  24.4163918
  83.3119021 107.8065721  24.8381817  91.4901662 106.2577831  28.6907647
  91.4720138 107.0786712  28.1987916  92.4121582 106.1331906  28.9157788
  87.9474717 103.7721960  29.5331155  88.4803053 103.0110248  29.3030463
  87.4188798 103.4795612  30.2755310  91.1144412  88.8782026  25.0624797
  90.7708681  89.7683668  24.9863907  91.4823374  88.6883684  24.1994382
  79.1830262 101.2015556  17.8813399  80.0205484 101.6112565  17.6647107
  79.3608530 100.2614999  17.8513593  88.6641805  93.7140338  18.6282470
  87.8083402  93.3247188  18.4488109  89.0768757  93.7932299  17.7682256
  90.1940952  91.2486681  23.0274030  89.6905748  91.2116816  22.2141835
  90.4871559  92.1579424  23.0870687  86.4383838  91.3325411  22.0340212
  87.3036835  91.1368220  21.6746101  86.5061347  91.1035763  22.9609569
  84.0446157  93.5627619  19.4056579  84.6189909  93.3402800  18.6729772
  84.6317139  93.6316313  20.1585180  86.3468825  90.4368868  18.1331648
  85.6933237  90.1217885  17.5088263  86.3049299  89.8144608  18.8591471
  89.5806565  96.9250801  22.4579296  88.6629126  97.1465748  22.3000984
  89.9966709  96.9997112  21.5991003  92.9132077  88.1375585  20.1642534
  93.2190954  87.2772949  19.8768450  93.6384682  88.7293205  19.9641528
  79.2056433  98.5406272  18.5524132  79.0080833  97.9475632  17.8275199
  78.6503097  98.2358482  19.2700071  87.1853157  98.4329378  20.6718726
  87.2401767  97.4803215  20.5961202  86.3744359  98.5888817  21.1560024
  85.1245517  97.0506438  18.4309104  84.3113382  97.3500609  18.8374297
  85.6204511  96.6562127  19.1483587  90.7219729  97.5148262  27.2623998
  91.0769116  97.7419736  28.1218464  91.3691860  97.8466639  26.6401254
  84.6159592  94.6224793  24.0470339  85.2558971  94.4813553  23.3493303
  83.7837122  94.3359307  23.6708941  90.2114740 106.3045319  24.5117699
  90.2651762 106.8736256  25.2795415  89.3429521 106.4747204  24.1471737
  81.6188208  94.5925118  18.8243326  81.8795025  95.5070452  18.7152487
  82.4405380  94.1249561  18.9739939  83.0913133  96.0062876  25.9942151
  83.7636187  95.7980238  25.3454800  82.2642920  95.8084962  25.5547383
  88.9938705  92.6324817  28.0107812  88.3466620  93.3314766  27.9172288
  89.7639721  93.0660960  28.3784060  92.4017503 102.8973669  31.0858365
  92.2503010 102.6684220  30.1688449  92.3922183 103.8544270  31.0989710
  89.1702840 100.4705581  26.0704631  90.0994900 100.6216741  25.8973599
  88.7493870 100.5589602  25.2153278  87.9691172 104.4956246  23.8403169
  87.8302257 104.1275030  24.7129107  87.1805768 105.0103885  23.6687127
  83.4940631  99.2805479  26.7544588  83.3560429  98.5485717  27.3556127
  84.4045554  99.1914379  26.4728776  86.1222931  98.9925438  26.2428268
  86.8322550  98.3518630  26.2014886  86.0792239  99.2438333  27.1654448
  94.1109710 105.9292791  29.1634847  94.0522256 105.2452011  28.4965430
  94.5129228 106.6711781  28.7115473  84.8351865  95.9790656  28.0623907
  84.2989222  95.5281394  28.7145503  84.2468574  96.1136565  27.3194371
  94.1127117 103.8932375  27.3948826  93.2253896 103.5558297  27.5175225
  94.6825668 103.1615406  27.6317592  75.7656264 100.2256467  20.7191878
  76.4527304  99.9118197  20.1312893  75.6104393 101.1297832  20.4459129
  80.5690987  95.1146664  25.1476901  80.4849175  94.5072333  24.4127311
  79.7473693  95.6055682  25.1486398  90.7414700  93.6000227  20.5147097
  91.2383400  92.8470189  20.1948167  89.9701682  93.6364544  19.9490306
  90.1026954 108.4520662  26.5168228  90.8154926 109.0868126  26.4444130
  89.6116983 108.5484528  25.7008230  87.3249669  95.7417610  20.2418781
  86.9547457  95.1888650  20.9299687  87.8208762  95.1375744  19.6893781
  85.1538868 106.2015105  27.3373799  85.8548327 106.8351588  27.4903193
  84.6833983 106.5429837  26.5769438  93.1833695  90.5669821  22.6626455
  92.2696775  90.7974047  22.8308662  93.6126797  90.6508265  23.5140488
  92.9540154  98.7559713  25.1626349  92.3011604  99.0035620  24.5078802
  93.3320534  97.9423851  24.8288827  89.0027727  99.4979524  31.6492387
  88.3268364  99.3973653  32.3194762  89.8255361  99.3418737  32.1128384
  80.7506586 105.7351460  24.2704902  81.3360023 104.9895148  24.4032806
  80.5531424 106.0455417  25.1541566  75.3424241  98.3057060  22.9909345
  75.3808340  97.7720651  23.7846463  74.8364533  97.7792266  22.3720322
  82.7215003  93.1521601  26.4871887  82.7856329  94.0136432  26.0749285
  82.6582123  92.5395602  25.7544246  82.1967275  95.2244733  30.1344921
  82.8239314  94.8421811  30.7482446  81.3395194  95.0058935  30.5000614
  92.5961384 105.6307709  31.7398657  93.1401288 106.2437667  31.2453612
  92.0148229 106.1887287  32.2565670  78.9732818  97.0321162  16.0663276
  79.2686259  96.1231841  16.0130330  78.0720854  97.0108902  15.7444279
  82.5027065  95.1077159  22.0490825  81.7813651  95.7213127  21.9098298
  83.2920321  95.6434924  21.9707471  85.3053379  92.4431586  28.3231477
  85.8287780  92.6893882  29.0857786  85.0865712  93.2751620  27.9034614
  80.7020660  94.7135260  16.1902601  80.3733366  93.8332639  16.0077707
  81.0560030  94.6582929  17.0778991  83.8162483  95.0008230  16.5578079
  84.1558555  95.5294151  15.8356688  84.2634603  95.3388636  17.3336646
  86.5105924  93.3845281  26.0081147  86.1702744  92.5853094  26.4101827
  85.8044930  93.6846991  25.4357980  87.1622395  90.4694593  24.4608470
  87.9848465  89.9955071  24.3387361  87.4060459  91.2485077  24.9607157
  84.6860974  97.1613714  22.2700449  84.5405555  97.4754017  23.1624730
  84.2086178  97.7798614  21.7171347  86.5457357  94.1516262  22.3181338
  86.5318926  93.2557355  21.9813636  87.2629785  94.1586925  22.9519624
  88.3983488  94.5853602  24.3634466  88.1401266  95.5070673  24.3618796
  87.8668528  94.1884036  25.0534930  79.1606636  99.7019058  25.2088110
  78.6160104 100.4778866  25.3408384  80.0385986 100.0489863  25.0507231
  85.9494253  93.0330642  17.5868909  86.0710164  92.1047288  17.7859796
  85.6596295  93.0469328  16.6747224  88.8185443  90.7185552  20.7235628
  88.8407140  90.7824886  19.7687608  89.2353502  89.8790061  20.9176135
  79.9472658  98.8288954  28.1018267  79.2054394  98.9771590  28.6882897
  79.6265403  99.0897220  27.2385016  87.8916321 108.3704933  27.8998657
  88.2003447 108.1254079  28.7721356  88.6891803 108.5751571  27.4117527
  78.5937877 104.6340710  21.0917595  77.7569785 104.2062884  20.9101596
  78.5661522 104.8273153  22.0288386  85.4335333  94.5462639  31.7958841
  85.4823488  95.4224762  31.4136611  85.9757847  94.0040032  31.2230484
  95.9190178 105.0903763  31.0759978  95.1285722 105.0727901  30.5364478
  95.6823533 105.6292056  31.8309015  96.0388053 101.9396229  28.3892707
  96.0886058 101.7746236  29.3308230  95.9301977 101.0723488  27.9990588
  93.3291816  97.9227157  29.7052013  94.2301678  97.7833622  29.4136011
  93.4039790  98.0881612  30.6450191  87.6634621  95.2994012  28.5505200
  86.7937930  95.5927578  28.2787788  87.8994101  95.8834457  29.2712463
  97.5406250 104.3593170  28.6334728  97.2491058 104.7223151  29.4698189
  96.9278381 103.6460179  28.4548060  95.7893438  99.4825785  27.1014786
  96.2647560  99.6753431  26.2933638  94.8659004  99.5384971  26.8558170
  90.3673655  91.5173629  26.0670620  90.8855599  92.2534656  25.7417109
  90.0128788  91.8237622  26.9017379  90.6186249  87.9373911  21.5871517
  90.8988003  87.2697100  22.2131943  91.4036856  88.1303007  21.0746181
  94.4895107  96.3591545  25.3343092  95.4412530  96.4589643  25.3555316
  94.3198558  95.5669814  25.8441176  92.5109487  93.4447128  25.5202493
  91.9159419  93.7252141  24.8248981  92.2259184  93.9341029  26.2919234
  96.9683185  99.5797665  24.4485392  96.9359505  98.6413666  24.6345075
  97.5783809  99.6581702  23.7151216  97.1177674  96.3708708  24.4943675
  96.6016722  95.5867165  24.3073604  98.0017622  96.0427425  24.6590194
  94.7788401  90.1149724  20.4539487  94.5813222  89.8064812  21.3382819
  95.3888106  90.8411363  20.5837417  88.6905209 102.5011464  31.9513253
  89.6108218 102.6790063  32.1453299  88.6554792 101.5567509  31.7992952
  77.9087374  97.6950058  20.8766527  77.5890158  96.8415366  20.5840901
  77.3620802  97.9098636  21.6324495  81.6867281 100.4112499  24.5936034
  81.9053291 101.3429606  24.6124068  82.0993055 100.0520473  25.3790838
  88.6071499  90.9180584  16.5811722  87.7972227  90.5727669  16.9566968
  89.2955916  90.6088128  17.1699334  90.5362047  89.9958631  18.2036019
  91.0893086  90.4154084  18.8626042  90.7732134  89.0694379  18.2458975
  86.5595146  95.9845704  33.9838783  86.4591873  96.9340061  33.9150874
  86.3416688  95.6563943  33.1114853  77.7775634 101.3152969  22.8459649
  77.0839105 100.9006922  22.3329603  78.5248625 101.3573506  22.2493068
  92.3644421  91.5064214  19.9136003  92.8644199  91.6180748  19.1050322
  93.0080029  91.2025266  20.5536812  86.4226416  99.4142843  32.8003844
  85.9393498 100.2143203  33.0067733  86.5087356  99.4250788  31.8471288
  79.6912376 101.2471223  20.7225664  79.6683064 101.3458910  19.7707547
  80.0013013 102.0936374  21.0442830  82.3499754 103.3047378  24.8372278
  83.3043008 103.2731320  24.7702210  82.1512278 102.8438002  25.6522504
  82.9399136 101.8748494  27.4043076  83.7592025 102.3692573  27.4277913
  83.2135944 100.9580462  27.3760643  96.0480268  94.2905767  20.4825370
  96.8240659  94.7802220  20.7549987  95.3228403  94.7163821  20.9397240
  78.1934050  96.2086628  28.1035273  78.8392914  95.6985582  28.5922498
  77.9851201  96.9455310  28.6778698  90.7187443 103.2767475  33.6027413
  91.5878602 103.4508128  33.2414048  90.2394194 104.0961892  33.4803143
  84.8873623 110.3964576  25.2816847  85.7900869 110.4288187  25.5983342
  84.6610993 109.4665027  25.2963183  90.5289780  87.0669449  18.1105106
  89.7622176  86.5127936  18.2561788  90.9400485  87.1391318  18.9719257
  82.5331541  93.3554245  32.2010287  83.3963003  92.9991050  32.4113612
  81.9596952  93.0168140  32.8885691  95.0913042 106.7634962  33.1940259
  94.6979988 106.2101160  33.8687903  95.9079182 107.0745540  33.5846776
  98.0081003 108.1792841  30.7860515  98.7490716 108.7799994  30.7064978
  98.2398926 107.4370478  30.2278558  93.0361030 110.5536651  30.1344921
  93.6633069 110.1713728  30.7482446  92.1788949 110.3350853  30.5000614
  96.2729087 109.8754557  31.7958841  96.3217243 110.7516680  31.4136611
  96.8151601 109.3331950  31.2230484  97.3988901 111.3137622  33.9838783
  97.2985628 112.2631979  33.9150874  97.1810443 110.9855861  33.1114853
  89.0327805 111.5378546  28.1035273  89.6786668 111.0277500  28.5922498
  88.8244956 112.2747227  28.6778698  93.3725296 108.6846163  32.2010287
  94.2356757 108.3282967  32.4113612  92.7990706 108.3460057  32.8885691
  46.0345408  21.6669482  17.3871552  45.5909262  20.8805861  17.0692457
  46.6962621  21.8548633  16.7215443  48.1326646  21.9472282  15.4152953
  48.1145121  22.7681163  14.9233223  49.0546566  21.8226358  15.6403095
  49.0442487  18.5868121  17.8103672  48.8927993  18.3578672  16.8933755
  49.0347166  19.5438722  17.8235017  50.7534693  21.6187243  15.8880153
  50.6947239  20.9346463  15.2210736  51.1554212  22.3606233  15.4360779
  49.2386367  21.3202160  18.4643964  49.7826271  21.9332119  17.9698918
  48.6573212  21.8781739  18.9810977  52.5615162  20.7798214  17.8005285
  51.7710705  20.7622353  17.2609784  52.3248516  21.3186508  18.5554321
  54.1831233  20.0487622  15.3580035  53.8916042  20.4117603  16.1943496
  53.5703365  19.3354631  15.1793367  47.3612426  18.9661927  20.3272720
  48.2303585  19.1402580  19.9659355  46.8819177  19.7856344  20.2048449
  59.0204902  30.6750553   9.7317995  59.6583312  30.5557301   9.0281335
  58.9025744  31.6231397   9.7905947  55.8294608  30.6277981   9.6679519
  55.4913119  30.5119046   8.7800054  56.6984376  30.2269146   9.6480526
  56.3114391  31.7812833  15.6265725  56.3003032  31.3865631  14.7546229
  56.4735030  31.0478906  16.2199496  49.2345855  33.9764649   8.4960631
  50.0267147  33.6355474   8.0806930  49.4742506  34.0859624   9.4162784
  53.0321652  34.5649945  14.5744909  52.7411518  35.4695576  14.4591575
  53.6678636  34.6066472  15.2888978  53.9577859  31.9426793  11.1646269
  54.5541431  31.7182816  10.4503231  54.0152830  31.2011539  11.7671716
  63.9754597  28.3377240   7.7104181  64.7079769  27.7676457   7.9442011
  63.2193953  27.9498841   8.1510687  61.4980018  22.0498814  12.1698790
  61.1663342  22.9194225  11.9460005  60.9025631  21.7335098  12.8492820
  57.9911537  34.2511360  11.5694703  57.6912260  35.1536399  11.4610510
  57.6462597  33.9843544  12.4215855  61.3908681  26.7693901   9.2492140
  60.4825558  26.7009309   8.9550901  61.3396277  27.2465845  10.0773965
  52.9732317  41.0155681   4.5365670  52.8956347  41.9663506   4.6154151
  52.3693960  40.6701553   5.1940597  55.4649547  28.1883546  17.1927037
  54.6882881  28.7477466  17.1829902  56.1040110  28.6740329  17.7141907
  63.2570327  24.9710339  11.0270014  62.6144708  25.2642872  10.3809808
  62.7525256  24.8563259  11.8323210  53.7195919  30.9968999  16.7545004
  54.4610603  31.5354043  16.4779828  53.0132904  31.6235288  16.9116556
  59.1951259  33.1398140  15.3517166  59.6034615  32.6980550  14.6071798
  58.4728520  32.5650767  15.6051359  55.5482329  28.0770747  12.7250723
  56.3943524  28.5010160  12.8685372  55.4880966  27.4204371  13.4189286
  59.5180073  33.6999331   9.1069455  58.8888936  33.8645045   8.4045522
  59.1305735  34.1140940   9.8780419  63.3969305  34.6353768   6.4613818
  62.7120343  35.0152670   5.9110852  63.4813154  35.2449095   7.1945766
  58.6981774  25.7375115  14.3831896  58.4542706  26.4917176  13.8466172
  58.9741704  26.1160463  15.2179143  60.6520237  32.2813727  13.0609162
  60.8637132  32.9245487  12.3843543  60.6049985  31.4476044  12.5931092
  55.0708035  33.4373739   6.3719540  55.5346381  33.7161442   5.5824162
  54.8064833  32.5357183   6.1892630  51.9632116  32.9845220   9.3099303
  52.5333473  33.4132489   8.6716787  52.5540228  32.7027805  10.0083489
  52.4557283  28.1508648  17.5560314  51.8255943  28.8324929  17.7895711
  52.3493371  28.0391729  16.6113452  61.7666065  35.1585683  11.2331519
  62.5883508  34.7565870  10.9514201  61.7628468  35.0553917  12.1847635
  55.5322668  34.7069726  13.3892230  55.5967101  35.1690133  14.2250401
  54.8233592  34.0767091  13.5174540  69.8572058  31.5024431   7.5816491
  69.1035766  30.9331829   7.4260495  69.9919599  31.4687096   8.5287125
  51.7338025  22.4529413  19.9185565  51.3404971  21.8995612  20.5933209
  52.5504166  22.7639992  20.3092083  50.5094968  37.0079028   5.9121888
  50.6861596  37.9296993   5.7242872  51.3051801  36.6937447   6.3416268
  54.6505986  23.8687293  17.5105822  55.3915700  24.4694446  17.4310284
  54.8823909  23.1264930  16.9523864  49.7947324  29.0543660  15.7884051
  49.6800840  28.1528917  16.0891150  48.9391842  29.3007357  15.4368868
  56.8739162  36.9961400  17.3871552  56.4303016  36.2097779  17.0692457
  57.5356376  37.1840551  16.7215443  51.6326283  38.5257202  11.9132231
  52.1833708  38.3974265  11.1409225  50.7937759  38.8252091  11.5627123
  58.9720400  37.2764200  15.4152953  58.9538876  38.0973081  14.9233223
  59.8940320  37.1518275  15.6403095  55.4293454  34.7908330  16.2576462
  55.9621791  34.0296618  16.0275770  54.9007535  34.4981981  17.0000616
  61.7739013  32.1143343   8.8862320  61.1162688  32.8042604   8.9742449
  62.5779412  32.5039774   9.2296306  60.5844472  30.4687715   6.9366262
  61.0976354  31.1017707   7.4387972  61.2345696  29.8688911   6.5709622
  57.0625303  27.9437171   9.1824602  56.1447864  28.1652118   9.0246290
  57.4785446  28.0183481   8.3236310  61.3506268  35.4493717   5.0645404
  60.8968595  34.6084627   5.1210595  60.7200235  36.0855115   5.4020185
  59.7939207  37.2870213   5.9995223  60.0862182  37.8475270   5.2807588
  60.3037828  37.5798774   6.7548382  54.7572833  38.0650564   7.0888676
  54.7149011  38.2911411   6.1597208  55.6735531  37.8313939   7.2374477
  58.2038466  28.5334632  13.9869305  58.5587854  28.7606105  14.8463771
  58.8510598  28.8653009  13.3646560  63.9336203  31.6553068   4.6918634
  63.7954102  31.8454664   3.7639823  63.5772422  32.4172451   5.1486685
  63.9605583  33.7229595   9.7029905  64.3942090  33.6304884  10.5512960
  64.6737164  33.6987095   9.0649921  52.8738633  34.9413593   6.8850638
  53.6679232  34.4463914   6.6833213  52.1630326  34.4131457   6.5218344
  57.6933478  37.3231689  11.2363006  57.7470500  37.8922625  12.0040722
  56.8248259  37.4933574  10.8717043  50.5731871  27.0249245  12.7187457
  51.2454925  26.8166607  12.0700106  49.7461658  26.8271331  12.2792690
  64.8221132  33.7653296  12.2362791  65.0157023  34.6699106  12.4822066
  64.7221751  33.3060715  13.0701376  56.4757443  23.6511186  14.7353118
  55.8285358  24.3501136  14.6417595  57.2458459  24.0847330  15.1029366
  59.8836241  33.9160038  17.8103672  59.7321748  33.6870590  16.8933755
  59.8740921  34.8730640  17.8235017  56.6521578  31.4891951  12.7949938
  57.5813638  31.6403111  12.6218905  56.2312608  31.5775972  11.9398584
  55.4509909  35.5142615  10.5648476  55.3120995  35.1461400  11.4374414
  54.6624506  36.0290255  10.3932433  56.0458061  40.6151712   1.9074012
  56.2209817  40.1439755   2.7219635  55.3590849  41.2417478   2.1355273
  57.0015124  34.8924218   7.9537313  56.6664957  34.8524988   8.8494963
  56.5019070  34.2268934   7.4807724  50.9759368  30.2991848  13.4789895
  50.8379166  29.5672087  14.0801434  51.8864292  30.2100748  13.1974082
  53.6041669  30.0111808  12.9673574  54.3141288  29.3705000  12.9260193
  53.5610977  30.2624702  13.8899755  61.5928448  36.9479161  15.8880153
  61.5340994  36.2638381  15.2210736  61.9947966  37.6898151  15.4360779
  52.3170603  26.9977025  14.7869214  51.7807960  26.5467764  15.4390810
  51.7287312  27.1322934  14.0439678  50.6119147  43.7641075   8.6813872
  50.8515745  44.3959599   9.3592891  49.7688343  43.4129115   8.9679232
  61.5945855  34.9118745  14.1194133  60.7072634  34.5744667  14.2420532
  62.1644406  34.1801776  14.3562898  55.1247008  39.5720197  11.0855376
  55.0517180  40.3775169  11.5974681  54.6824402  39.7712163  10.2603398
  54.9136788  38.8091967   4.5958198  54.1304310  39.3513647   4.6896422
  55.6129533  39.3265947   4.9952439  66.0763196  30.3226962   8.8810695
  66.0653072  31.2051678   8.5104628  65.2080575  29.9698513   8.6865232
  57.5845692  39.4707031  13.2413535  58.2973664  40.1054496  13.1689436
  57.0935721  39.5670897  12.4253537  59.3063219  33.3758284   4.8130827
  58.3719498  33.4959746   4.6435531  59.4839887  32.4730751   4.5490836
  62.6935770  29.2175603   5.3480861  63.1596222  30.0503595   5.2741163
  63.1443271  28.7520585   6.0526119  52.6357606  37.2201475  14.0619106
  53.3367065  37.8537958  14.2148500  52.1652721  37.5616206  13.3014745
  60.4358891  29.7746082  11.8871656  59.7830342  30.0221990  11.2324109
  60.8139271  28.9610220  11.5534133  57.3966065  39.8105775   5.9899826
  57.5788460  38.9927431   6.4527579  58.2199051  40.0273467   5.5524716
  57.7308231  38.7373960   3.2514875  58.2595997  38.2266415   2.6385037
  57.9936450  38.4216491   4.1160408  56.4846464  30.5165893  18.3737693
  55.8087102  30.4160022  19.0440068  57.3074098  30.3605107  18.8373690
  48.2325324  36.7537830  10.9950208  48.8178760  36.0081518  11.1278113
  48.0350162  37.0641786  11.8786872  51.0863979  39.7889077   6.0112651
  50.4174354  40.2735205   5.5276691  50.9476848  40.0358298   6.9256029
  55.2269247  41.8232821  12.6095309  55.7787555  41.9864442  13.3744394
  55.5675441  42.4137258  11.9375334  49.6786013  26.2431103  16.8590228
  50.3058052  25.8608180  17.4727752  48.8213932  26.0245305  17.2245921
  60.0780122  36.6494078  18.4643964  60.6220026  37.2624036  17.9698918
  59.4966967  37.2073656  18.9810977  58.3637635  39.7714796   9.5958991
  58.2388774  38.9704536   9.0869937  59.0216726  40.2660989   9.1072961
  60.4272543  37.5723816  11.2238541  59.4802879  37.4529167  11.1516868
  60.7755316  36.6846314  11.3064803  52.7872116  23.4617955  15.0476783
  53.3106518  23.7080252  15.8103093  52.5684450  24.2937990  14.6279921
  57.4318976  37.3676532   7.4242894  57.2843939  36.4393240   7.6050464
  58.2572470  37.3896623   6.9399969  61.0353098  38.1905091   8.5107766
  61.9599646  37.9847952   8.3732218  60.8668402  37.9421492   9.4197108
  53.9924661  24.4031650  12.7326454  53.6521482  23.6039463  13.1347134
  53.2863668  24.7033361  12.1603287  55.8802226  25.6039971  11.0879772
  55.6220003  26.5257042  11.0864103  55.3487266  25.2070406  11.7780237
  60.8248414  38.7090759   3.8669858  60.9985292  38.1437181   3.1143710
  61.3177306  39.5091653   3.6849348  46.6425374  30.7205428  11.9333417
  46.0978842  31.4965236  12.0653691  47.5204724  31.0676232  11.7752538
  66.6787806  31.4727182   5.4860158  67.1218952  30.7234507   5.0879281
  65.8014316  31.4637318   5.1033890  61.8123587  38.0257523   0.9666756
  62.5074492  38.6464216   1.1854071  62.1546737  37.1752874   1.2419134
  47.4291396  29.8475324  14.8263574  46.6873132  29.9957959  15.4128204
  47.1084140  30.1083590  13.9630323  63.7115010  35.4757229   2.4954087
  64.2366334  35.8144501   1.7703407  63.6237363  34.5404244   2.3117222
  55.3735059  39.3891302  14.6243964  55.6822185  39.1440449  15.4966663
  56.1710541  39.5937941  14.1362834  55.3955671  41.5429212   6.8549340
  54.9560661  41.0505590   7.5482197  56.1463788  41.0002179   6.6141415
  47.8748010  37.7340753   6.8573968  48.7006030  37.4344525   6.4772612
  47.5242062  36.9648375   7.3063757  52.8429543  37.0867221   8.9271642
  52.2209552  36.4237926   8.6273870  53.5134410  37.1128353   8.2445290
  52.9154070  25.5649009  18.5204148  52.9642226  26.4411132  18.1381917
  53.4576585  25.0226402  17.9475791  63.4008916  36.1090132  17.8005285
  62.6104460  36.0914271  17.2609784  63.1642271  36.6478426  18.5554321
  63.5206791  32.9582599  15.1138013  63.5704796  32.7932606  16.0553536
  63.4120714  32.0909858  14.7235894  60.8110554  28.9413527  16.4297320
  61.7120416  28.8019991  16.1381318  60.8858528  29.1067981  17.3695498
  55.1453359  26.3180381  15.2750506  54.2756668  26.6113947  15.0033095
  55.3812839  26.9020826  15.9957770  65.0224988  35.3779540  15.3580035
  64.7309796  35.7409521  16.1943496  64.4097119  34.6646548  15.1793367
  66.2220670  32.9432420   7.8782605  67.0567562  33.3822224   8.0420166
  66.3579799  32.4671073   7.0590851  63.2712176  30.5012155  13.8260093
  63.7466298  30.6939801  13.0178944  62.3477742  30.5571341  13.5803477
  57.8492393  22.5359998  12.7915927  58.3674337  23.2721025  12.4662415
  57.4947525  22.8423992  13.6262686  61.9713845  27.3777915  12.0588399
  62.9231268  27.4776012  12.0800623  61.8017296  26.5856183  12.5686483
  59.9928225  24.4633498  12.2447799  59.3978157  24.7438511  11.5494288
  59.7077921  24.9527399  13.0164541  64.4501923  30.5984034  11.1730698
  64.4178243  29.6600035  11.3590382  65.0602547  30.6768071  10.4396523
  64.5996411  27.3895078  11.2188981  64.0835460  26.6053535  11.0318910
  65.4836360  27.0613795  11.3835501  70.2678473  31.6600041  10.3136735
  70.9981861  31.3985329  10.8744438  69.6585418  30.9228763  10.3538803
  68.3493770  29.8007904  10.9111186  67.6226934  29.6663869  10.3027678
  67.9341057  30.1084732  11.7167904  56.1723946  33.5197834  18.6758559
  57.0926956  33.6976433  18.8698606  56.1373529  32.5753879  18.5238258
  49.1686019  31.4298868  11.3181340  49.3872029  32.3615976  11.3369374
  49.5811793  31.0706843  12.1036144  54.0413884  27.0032074  20.7084089
  53.9410611  27.9526431  20.6396180  53.8235426  26.6750313  19.8360159
  53.9045154  30.4329213  19.5249151  53.4212236  31.2329573  19.7313040
  53.9906093  30.4437158  18.5716595  49.8318492  34.3233748  11.5617585
  50.7861745  34.2917690  11.4947516  49.6331015  33.8624371  12.3767811
  50.4217874  32.8934864  14.1288382  51.2410763  33.3878942  14.1523220
  50.6954682  31.9766832  14.1005950  63.5299006  25.3092137   7.2070677
  64.3059396  25.7988589   7.4795294  62.8047140  25.7350191   7.6642547
  65.9671565  26.0219756   8.2644618  66.5616056  25.7815492   7.5537926
  66.0398149  25.3026887   8.8918154  48.1868721  39.8653367   8.5787783
  48.0523188  39.1053768   8.0125781  47.7700783  40.5894267   8.1116571
  68.2742638  29.3285957   7.0388039  67.7142196  29.3979146   7.8119601
  67.6686141  29.1526942   6.3187535  51.3437846  40.7622684   8.7906225
  51.2270231  41.7068117   8.6884915  50.5230293  40.4596246   9.1792024
  45.6752788  27.2272997  14.8280579  46.3211652  26.7171951  15.3167805
  45.4669939  27.9641679  15.4024005  58.2006180  34.2953845  20.3272720
  59.0697340  34.4694497  19.9659355  57.7212932  35.1148262  20.2048449
  52.3692361  41.4150946  12.0062154  53.2719607  41.4474556  12.3228649
  52.1429731  40.4851397  12.0208489  54.1245963  40.1681932   8.6672232
  53.1741594  40.1683794   8.5536605  54.4278449  39.4214667   8.1508267
  50.0150279  24.3740615  18.9255594  50.8781741  24.0177419  19.1358918
  49.4415690  24.0354509  19.6130998  69.8598656  46.0042471   9.7317995
  70.4977066  45.8849218   9.0281335  69.7419499  46.9523315   9.7905947
  66.6688362  45.9569899   9.6679519  66.3306874  45.8410964   8.7800054
  67.5378131  45.5561064   9.6480526  62.5275178  47.8105375   5.6576410
  61.9640043  47.7195312   4.8892698  62.4127573  46.9905280   6.1378903
  67.1508145  47.1104751  15.6265725  67.1396786  46.7157549  14.7546229
  67.3128785  46.3770823  16.2199496  60.0739610  49.3056567   8.4960631
  60.8660902  48.9647392   8.0806930  60.3136260  49.4151542   9.4162784
  68.1074737  51.4776343   0.9690875  67.4562717  52.0630423   0.5824889
  68.9019100  52.0082538   1.0285913  62.0330364  48.5665480   1.3678010
  62.8061240  48.0194467   1.2290885  62.3855763  49.4309730   1.5792471
  63.8715406  49.8941862  14.5744909  63.5805272  50.7987493  14.4591575
  64.5072391  49.9358390  15.2888978  64.7971613  47.2718711  11.1646269
  65.3935186  47.0474733  10.4503231  64.8546585  46.5303456  11.7671716
  64.3696642  44.7258146  -1.0003541  64.6222162  44.2039668  -1.7620078
  63.4321201  44.5624292  -0.8976857  69.4139925  43.7293925   6.8071203
  70.2003014  43.3113348   6.4561620  69.6778629  44.6340017   6.9752851
  69.5850002  49.1666775   1.5059860  68.9495835  49.2401402   2.2180764
  69.2547408  49.7560374   0.8278939  74.8148352  43.6669158   7.7104181
  75.5473524  43.0968375   7.9442011  74.0587707  43.2790758   8.1510687
  64.0892930  46.6286252   1.2020834  63.9729189  45.9531156   1.8701919
  64.1995190  46.1418626   0.3852987  66.4324471  46.0896399   4.9067524
  66.0682679  45.5627020   5.6180445  67.2891587  45.6994868   4.7334009
  72.3373772  37.3790732  12.1698790  72.0057097  38.2486143  11.9460005
  71.7419385  37.0627016  12.8492820  66.0729958  41.1186299  -0.0971128
  66.2404361  41.9866536   0.2699343  65.8827127  41.2813581  -1.0209839
  68.8305292  49.5803278  11.5694703  68.5306015  50.4828317  11.4610510
  68.4856351  49.3135461  12.4215855  62.2817773  46.0317075   7.6031407
  61.3568270  45.8993289   7.8109099  62.5302186  46.8111294   8.1001349
  72.2302435  42.0985818   9.2492140  71.3219313  42.0301227   8.9550901
  72.1790031  42.5757763  10.0773965  66.0519179  43.5743957   0.8875539
  65.9318804  44.0201007   1.7261019  65.3571768  43.9229274   0.3289077
  59.6426584  45.6750348   8.4375196  59.7718965  45.9284827   9.3514608
  58.9624035  46.2678056   8.1179851  63.8126071  56.3447598   4.5365670
  63.7350101  57.2955423   4.6154151  63.2087715  55.9993471   5.1940597
  66.3043301  43.5175464  17.1927037  65.5276635  44.0769384  17.1829902
  66.9433864  44.0032247  17.7141907  74.0964082  40.3002257  11.0270014
  73.4538462  40.5934790  10.3809808  73.5919010  40.1855177  11.8323210
  71.7504245  44.0465430   1.7155873  72.6622102  44.2792817   1.5403571
  71.2413892  44.6302474   1.1530952  64.5589673  46.3260917  16.7545004
  65.3004358  46.8645961  16.4779828  63.8526659  46.9527206  16.9116556
  70.0345013  48.4690058  15.3517166  70.4428369  48.0272468  14.6071798
  69.3122275  47.8942685  15.6051359  66.3876083  43.4062664  12.7250723
  67.2337278  43.8302078  12.8685372  66.3274721  42.7496289  13.4189286
  70.3573828  49.0291248   9.1069455  69.7282690  49.1936962   8.4045522
  69.9699490  49.4432858   9.8780419  74.2363060  49.9645686   6.4613818
  73.5514098  50.3444587   5.9110852  74.3206909  50.5741013   7.1945766
  69.5375528  41.0667033  14.3831896  69.2936460  41.8209093  13.8466172
  69.8135459  41.4452380  15.2179143  71.4913991  47.6105645  13.0609162
  71.7030886  48.2537405  12.3843543  71.4443739  46.7767962  12.5931092
  69.0940220  40.2223466   9.9645734  68.2324699  40.5204719  10.2562472
  69.1202655  40.4393865   9.0326767  65.9101790  48.7665656   6.3719540
  66.3740135  49.0453359   5.5824162  65.6458588  47.8649101   6.1892630
  62.8025871  48.3137138   9.3099303  63.3727228  48.7424406   8.6716787
  63.3933983  48.0319723  10.0083489  64.8470676  44.8888809   3.1809105
  65.5494719  45.3409852   3.6483031  64.5151304  44.2472628   3.8088998
  63.2951037  43.4800565  17.5560314  62.6649698  44.1616846  17.7895711
  63.1887125  43.3683647  16.6113452  58.5896010  43.1472361   8.4826238
  57.7995064  43.4029890   8.0066349  59.0807257  43.9620699   8.5878279
  72.6059819  50.4877601  11.2331519  73.4277263  50.0857788  10.9514201
  72.6022222  50.3845835  12.1847635  60.5410755  43.5116941   5.4409715
  59.7441918  43.6235635   5.9593211  60.3136347  43.8503593   4.5750606
  66.3716423  50.0361644  13.3892230  66.4360855  50.4982051  14.2250401
  65.6627347  49.4059009  13.5174540  56.8733713  43.4002852  10.9141229
  57.1241751  44.2849862  11.1798805  57.4093261  43.2207453  10.1416321
  80.6965812  46.8316349   7.5816491  79.9429521  46.2623747   7.4260495
  80.8313353  46.7979014   8.5287125  66.0864440  51.7029751   3.2571210
  65.9510115  52.5481287   3.6856058  66.6274253  51.9049029   2.4937144
  62.5731780  37.7821331  19.9185565  62.1798725  37.2287530  20.5933209
  63.3897920  38.0931910  20.3092083  59.5393838  49.2205189   3.8299135
  60.0518358  50.0148440   3.9804700  60.1916550  48.5231480   3.7632737
  61.3488722  52.3370946   5.9121888  61.5255351  53.2588910   5.7242872
  62.1445556  52.0229365   6.3416268  65.4899741  39.1979210  17.5105822
  66.2309454  39.7986363  17.4310284  65.7217664  38.4556848  16.9523864
  60.6341079  44.3835578  15.7884051  60.5194594  43.4820835  16.0891150
  59.7785597  44.6299274  15.4368868  67.7132917  52.3253318  17.3871552
  67.2696771  51.5389696  17.0692457  68.3750130  52.5132468  16.7215443
  62.4720038  53.8549119  11.9132231  63.0227463  53.7266183  11.1409225
  61.6331514  54.1544008  11.5627123  69.8114155  52.6056118  15.4152953
  69.7932630  53.4264999  14.9233223  70.7334075  52.4810193  15.6403095
  66.2687209  50.1200247  16.2576462  66.8015546  49.3588535  16.0275770
  65.7401290  49.8273899  17.0000616  69.4356904  35.2260313  11.7870103
  69.0921173  36.1161955  11.7109214  69.8035866  35.0361971  10.9239688
  57.5042754  47.5493844   4.6058706  58.3417976  47.9590852   4.3892413
  57.6821022  46.6093286   4.5758899  69.4007187  45.2168924   0.2942539
  68.8853810  45.9873529   0.5330926  69.1284495  44.5434060   0.9175600
  66.9854298  40.0618625   5.3527777  66.1295894  39.6725475   5.1733416
  67.3981249  40.1410586   4.4927562  68.5153444  37.5964968   9.7519337
  68.0118240  37.5595104   8.9387142  68.8084051  38.5057711   9.8115993
  64.7596330  37.6803698   8.7585518  65.6249327  37.4846507   8.3991408
  64.8273839  37.4514050   9.6854875  74.3741461  47.9701279   2.2295712
  73.5970903  47.6312438   1.7850874  75.0532942  47.9753902   1.5550677
  69.1893490  43.0896016   2.1202320  68.8843625  43.4042166   2.9712463
  70.1423932  43.1677436   2.1629653  67.6339922  49.2486240   3.7695274
  67.1061283  48.5138999   3.4568511  67.1327424  50.0260916   3.5235242
  72.6132768  47.4435260   8.8862320  71.9556442  48.1334522   8.9742449
  73.4173167  47.8331692   9.2296306  62.3658649  39.9105906   6.1301885
  62.9402401  39.6881087   5.3975078  62.9529632  39.9794601   6.8830487
  71.4238226  45.7979633   6.9366262  71.9370108  46.4309625   7.4387972
  72.0739450  45.1980828   6.5709622  62.6928236  41.9410367   0.1497771
  61.8565549  42.2785054   0.4707045  62.5533006  41.8059347  -0.7875093
  64.6681317  36.7847155   4.8576955  64.0145729  36.4696172   4.2333569
  64.6261791  36.1622895   5.5836778  65.7792522  47.0666450  -3.2269753
  64.8719584  46.8355703  -3.0278604  66.2763554  46.2704069  -3.0395772
  68.6860601  55.7763957  -0.3073067  68.0122299  56.0795654   0.3011891
  69.0726423  56.5793038  -0.6567610  67.9019057  43.2729088   9.1824602
  66.9841619  43.4944035   9.0246290  68.3179201  43.3475399   8.3236310
  68.6854105  44.6720504   4.3127283  69.4325924  45.1841901   4.0034405
  68.9545695  44.3504557   5.1731676  66.9580755  47.1679045   1.2954237
  66.0491974  46.8838078   1.3926707  66.9875839  47.5878123   0.4357544
  72.1900023  50.7785634   5.0645404  71.7362350  49.9376544   5.1210595
  71.5593989  51.4147033   5.4020185  71.1332942  41.7077620   6.2946072
  70.3955699  41.1955007   6.6256314  71.3859716  41.2678002   5.4829349
  70.6332962  52.6162131   5.9995223  70.9255936  53.1767188   5.2807588
  71.1431582  52.9090692   6.7548382  71.2344569  34.4853872   6.8887841
  71.5403446  33.6251236   6.6013756  71.9597174  35.0771493   6.6886835
  57.5268926  44.8884559   5.2769439  57.3293325  44.2953920   4.5520506
  56.9715590  44.5836769   5.9945378  65.5065649  44.7807665   7.3964032
  65.5614259  43.8281502   7.3206509  64.6956851  44.9367105   7.8805331
  66.6556843  48.7087789  -1.3657685  66.2176273  47.9923647  -1.8252047
  67.3967284  48.9363903  -1.9272593  63.4458009  43.3984725   5.1554411
  62.6325875  43.6978896   5.5619603  63.9417003  43.0040414   5.8728893
  65.5966587  53.3942482   7.0888676  65.5542766  53.6203328   6.1597208
  66.5129286  53.1605857   7.2374477  69.0432221  43.8626550  13.9869305
  69.3981609  44.0898023  14.8463771  69.6904352  44.1944926  13.3646560
  74.7729958  46.9844986   4.6918634  74.6347856  47.1746582   3.7639823
  74.4166177  47.7464368   5.1486685  62.9372084  40.9703081  10.7715646
  63.5771463  40.8291840  10.0738609  62.1049614  40.6837594  10.3954248
  74.7999337  49.0521513   9.7029905  75.2335844  48.9596802  10.5512960
  75.5130918  49.0279013   9.0649921  63.7132388  50.2705511   6.8850638
  64.5072986  49.7755831   6.6833213  63.0024080  49.7423374   6.5218344
  68.5327232  52.6523607  11.2363006  68.5864255  53.2214543  12.0040722
  67.6642014  52.8225492  10.8717043  60.0215151  44.4148593   2.9610391
  59.0912739  44.3533048   3.1780353  60.1172623  43.8924546   2.1647032
  59.9400700  40.9403406   5.5488633  60.2007518  41.8548739   5.4397793
  60.7617873  40.4727848   5.6985246  61.4125626  42.3541163  12.7187457
  62.0848679  42.1458525  12.0700106  60.5855412  42.1563249  12.2792690
  75.6614887  49.0945213  12.2362791  75.8550777  49.9991024  12.4822066
  75.5615505  48.6352632  13.0701376  67.3151198  38.9803104  14.7353118
  66.6679113  39.6793053  14.6417595  68.0852213  39.4139248  15.1029366
  70.7229996  49.2451956  17.8103672  70.5715502  49.0162508  16.8933755
  70.7134675  50.2022557  17.8235017  67.4915332  46.8183869  12.7949938
  68.4207392  46.9695028  12.6218905  67.0706362  46.9067889  11.9398584
  66.2903664  50.8434533  10.5648476  66.1514750  50.4753318  11.4374414
  65.5018260  51.3582173  10.3932433  66.8851816  55.9443630   1.9074012
  67.0603571  55.4731673   2.7219635  66.1984604  56.5709396   2.1355273
  67.8408879  50.2216136   7.9537313  67.5058712  50.1816906   8.8494963
  67.3412825  49.5560852   7.4807724  61.8153123  45.6283766  13.4789895
  61.6772921  44.8964005  14.0801434  62.7258046  45.5392666  13.1974082
  70.7768071  47.5672170  -1.7725627  70.1597241  46.8418998  -1.8692574
  70.3084559  48.3281530  -2.1158553  64.4435424  45.3403725  12.9673574
  65.1535042  44.6996917  12.9260193  64.4004732  45.5916620  13.8899755
  72.4322202  52.2771079  15.8880153  72.3734748  51.5930299  15.2210736
  72.8341721  53.0190069  15.4360779  63.1564358  42.3268943  14.7869214
  62.6201715  41.8759682  15.4390810  62.5681066  42.4614852  14.0439678
  61.4512901  59.0932992   8.6813872  61.6909499  59.7251517   9.3592891
  60.6082098  58.7421032   8.9679232  72.4339610  50.2410662  14.1194133
  71.5466388  49.9036584  14.2420532  73.0038161  49.5093694  14.3562898
  54.0868757  46.5734754   7.4437184  54.7739797  46.2596484   6.8558200
  53.9316885  47.4776119   7.1704436  58.8903479  41.4624951  11.8722208
  58.8061668  40.8550620  11.1372618  58.0686185  41.9533969  11.8731704
  65.9640763  54.9012115  11.0855376  65.8910934  55.7067086  11.5974681
  65.5218156  55.1004081  10.2603398  65.7530543  54.1383885   4.5958198
  64.9698064  54.6805565   4.6896422  66.4523288  54.6557864   4.9952439
  69.0627193  39.9478514   7.2392403  69.5595892  39.1948477   6.9193473
  68.2914174  39.9842831   6.6735613  76.9156950  45.6518880   8.8810695
  76.9046826  46.5343595   8.5104628  76.0474330  45.2990431   8.6865232
  68.4239446  54.7998949  13.2413535  69.1367419  55.4346414  13.1689436
  67.9329475  54.8962815  12.4253537  70.1456973  48.7050202   4.8130827
  69.2113252  48.8251664   4.6435531  70.3233642  47.8022668   4.5490836
  65.6462161  42.0895897   6.9664088  65.2759949  41.5366938   7.6544993
  66.1421254  41.4854031   6.4139088  73.5329525  44.5467521   5.3480861
  73.9989977  45.3795512   5.2741163  73.9837025  44.0812502   6.0526119
  63.4751360  52.5493392  14.0619106  64.1760819  53.1829875  14.2148500
  63.0046475  52.8908124  13.3014745  71.6005756  50.8911342   2.3467013
  71.8765600  50.7767937   3.2560887  70.7310255  50.4928827   2.3079186
  71.5046187  36.9148108   9.3871762  70.5909267  37.1452335   9.5553969
  71.9339289  36.9986552  10.2385794  71.2752646  45.1038000  11.8871656
  70.6224096  45.3513907  11.2324109  71.6533026  44.2902138  11.5534133
  68.2359820  55.1397693   5.9899826  68.4182214  54.3219349   6.4527579
  69.0592806  55.3565385   5.5524716  68.5701985  54.0665878   3.2514875
  69.0989752  53.5558333   2.6385037  68.8330205  53.7508408   4.1160408
  67.3240219  45.8457811  18.3737693  66.6480856  45.7451940  19.0440068
  68.1467853  45.6897025  18.8373690  59.0719078  52.0829747  10.9950208
  59.6572515  51.3373435  11.1278113  58.8743917  52.3933704  11.8786872
  61.9257733  55.1180995   6.0112651  61.2568109  55.6027122   5.5276691
  61.7870603  55.3650215   6.9256029  53.6636733  44.6535348   9.7154652
  53.7020832  44.1198938  10.5091770  53.1577026  44.1270553   9.0965629
  66.0663002  57.1524738  12.6095309  66.6181310  57.3156360  13.3744394
  66.4069195  57.7429176  11.9375334  61.0427495  39.4999888  13.2117194
  61.1068822  40.3614719  12.7994592  60.9794615  38.8873890  12.4789552
  60.5179768  41.5723021  16.8590228  61.1451806  41.1900098  17.4727752
  59.6607686  41.3537223  17.2245921  70.9173876  51.9785996  18.4643964
  71.4613780  52.5915954  17.9698918  70.3360721  52.5365574  18.9810977
  57.2945310  43.3799450   2.7908583  57.5898751  42.4710128   2.7375637
  56.3933346  43.3587189   2.4689585  69.2031389  55.1006714   9.5958991
  69.0782529  54.2996454   9.0869937  69.8610480  55.5952907   9.1072961
  60.8239557  41.4555446   8.7736132  60.1026143  42.0691414   8.6343605
  61.6132813  41.9913211   8.6952777  71.2666298  52.9015734  11.2238541
  70.3196633  52.7821085  11.1516868  71.6149071  52.0138232  11.3064803
  63.6265871  38.7909873  15.0476783  64.1500273  39.0372169  15.8103093
  63.4078204  39.6229908  14.6279921  59.0233152  41.0613547   2.9147908
  58.6945858  40.1810926   2.7323014  59.3772523  41.0061216   3.8024297
  68.2712731  52.6968450   7.4242894  68.1237693  51.7685157   7.6050464
  69.0966224  52.7188541   6.9399969  62.1374975  41.3486517   3.2823386
  62.4771048  41.8772438   2.5601994  62.5847096  41.6866923   4.0581952
  71.8746853  53.5197009   8.5107766  72.7993400  53.3139870   8.3732218
  71.7062156  53.2713410   9.4197108  64.8318416  39.7323568  12.7326454
  64.4915236  38.9331381  13.1347134  64.1257422  40.0325279  12.1603287
  65.4834888  36.8172880  11.1853777  66.3060957  36.3433359  11.0632667
  65.7272951  37.5963364  11.6852463  64.1243122  39.8461139   1.4816679
  64.8451485  40.2242392   0.9780395  63.5008426  40.5650016   1.5851656
  68.2674245  40.5506288   2.4175011  68.4837860  41.4330926   2.1163839
  67.7868312  40.1592501   1.6880653  63.0073467  43.5092001   8.9945755
  62.8618047  43.8232304   9.8870037  62.5298670  44.1276901   8.4416654
  64.8669849  40.4994549   9.0426645  64.8531418  39.6035642   8.7058943
  65.5842278  40.5065213   9.6764931  66.7195980  40.9331889  11.0879772
  66.4613758  41.8548960  11.0864103  66.1881020  40.5362324  11.7780237
  71.6642169  54.0382676   3.8669858  71.8379046  53.4729099   3.1143710
  72.1571060  54.8383571   3.6849348  57.4819129  46.0497345  11.9333417
  56.9372597  46.8257153  12.0653691  58.3598479  46.3968150  11.7752538
  64.2706745  39.3808929   4.3114215  64.3922657  38.4525575   4.5105103
  63.9808788  39.3947615   3.3992531  67.1397936  37.0663840   7.4480935
  67.1619633  37.1303173   6.4932915  67.5565995  36.2268348   7.6421441
  77.5181560  46.8019099   5.4860158  77.9612706  46.0526424   5.0879281
  76.6408070  46.7929236   5.1033890  72.6517341  53.3549441   0.9666756
  73.3468246  53.9756133   1.1854071  72.9940492  52.5044792   1.2419134
  58.2685151  45.1767242  14.8263574  57.5266887  45.3249877  15.4128204
  57.9477895  45.4375507  13.9630323  74.5508764  50.8049146   2.4954087
  75.0760089  51.1436419   1.7703407  74.4631117  49.8696162   2.3117222
  66.2128813  54.7183220  14.6243964  66.5215940  54.4732367  15.4966663
  67.0104295  54.9229858  14.1362834  66.2349425  56.8721129   6.8549340
  65.7954416  56.3797508   7.5482197  66.9857542  56.3294097   6.6141415
  58.7141764  53.0632670   6.8573968  59.5399784  52.7636442   6.4772612
  58.3635816  52.2940293   7.3063757  63.6823297  52.4159139   8.9271642
  63.0603307  51.7529844   8.6273870  64.3528164  52.4420270   8.2445290
  56.9150369  50.9818997   7.8162902  56.0782278  50.5541171   7.6346903
  56.8874015  51.1751440   8.7533693  63.7547825  40.8940927  18.5204148
  63.8035980  41.7703049  18.1381917  64.2970339  40.3518320  17.9475791
  74.2402671  51.4382050  17.8005285  73.4498214  51.4206189  17.2609784
  74.0036025  51.9770344  18.5554321  74.3600546  48.2874516  15.1138013
  74.4098551  48.1224524  16.0553536  74.2514469  47.4201775  14.7235894
  63.2436804  50.9663062   2.4030102  63.3924925  51.6498526   1.7496775
  64.0503248  50.9468152   2.9179558  71.6504308  44.2705444  16.4297320
  72.5514171  44.1311909  16.1381318  71.7252283  44.4359899  17.3695498
  65.9847113  41.6472299  15.2750506  65.1150423  41.9405865  15.0033095
  66.2206594  42.2312744  15.9957770  75.8618742  50.7071458  15.3580035
  75.5703551  51.0701438  16.1943496  75.2490874  49.9938466  15.1793367
  77.0614425  48.2724338   7.8782605  77.8961316  48.7114142   8.0420166
  77.1973554  47.7962991   7.0590851  74.1105931  45.8304072  13.8260093
  74.5860052  46.0231719  13.0178944  73.1871496  45.8863258  13.5803477
  60.9989437  46.9928240   3.4091171  60.7535479  46.0890570   3.6071381
  61.1685352  46.9945390   2.4670649  68.6886147  37.8651916  12.7915927
  69.2068091  38.6012943  12.4662415  68.3341280  38.1715909  13.6262686
  60.2685085  42.7256597   0.9077333  59.5754330  42.8000952   0.2517369
  60.0236837  41.9616941   1.4298850  68.9398741  34.2852198   8.3116823
  69.2200495  33.6175388   8.9377250  69.7249348  34.4781294   7.7991487
  66.7432210  53.4611192  -0.1258150  66.1706177  54.0801379  -0.5787678
  67.3165003  54.0110554   0.4081772  72.8107600  42.7069832  12.0588399
  73.7625023  42.8067930  12.0800623  72.6411050  41.9148101  12.5686483
  70.8321979  39.7925416  12.2447799  70.2371911  40.0730428  11.5494288
  70.5471676  40.2819317  13.0164541  69.9629470  53.7448342   1.0050432
  70.8960143  53.6793904   1.2083308  69.8752682  54.5804609   0.5464965
  72.5917486  53.0614213  -2.0345620  72.5131118  52.7274076  -1.1409863
  73.4127153  53.5535981  -2.0354148  75.2895677  45.9275952  11.1730698
  75.2571998  44.9891953  11.3590382  75.8996301  46.0059989  10.4396523
  67.1279008  44.7972005  -2.7842098  68.0738113  44.6678213  -2.7153680
  66.7493253  44.0586667  -2.3072670  75.4390166  42.7186996  11.2188981
  74.9229215  41.9345452  11.0318910  76.3230114  42.3905712  11.3835501
  73.1000893  36.4628011   7.1784794  72.9025714  36.1543099   8.0628126
  73.7100598  37.1889650   7.3082724  81.1072227  46.9891959  10.3136735
  81.8375616  46.7277247  10.8744438  80.4979173  46.2520681  10.3538803
  79.1887524  45.1299822  10.9111186  78.4620688  44.9955786  10.3027678
  78.7734811  45.4376650  11.7167904  67.0117701  48.8489751  18.6758559
  67.9320710  49.0268350  18.8698606  66.9767284  47.9045797  18.5238258
  65.3121925  42.7221981  -2.8487213  64.4053381  42.4255094  -2.7724499
  65.5897906  42.4251800  -3.7152926  56.2299866  44.0428345   7.6011834
  55.9102650  43.1893653   7.3086208  55.6833294  44.2576923   8.3569801
  60.0079773  46.7590786  11.3181340  60.2265783  47.6907894  11.3369374
  60.4205547  46.3998760  12.1036144  66.9283991  37.2658871   3.3057029
  66.1184720  36.9205956   3.6812275  67.6168408  36.9566415   3.8944640
  68.8574539  36.3436918   4.9281325  69.4105578  36.7632371   5.5871348
  69.0944626  35.4172666   4.9704281  64.8807639  42.3323992  20.7084089
  64.7804366  43.2818349  20.6396180  64.6629181  42.0042231  19.8360159
  56.0988126  47.6631256   9.5704955  55.4051597  47.2485209   9.0574910
  56.8461117  47.7051793   8.9738374  72.2353347  38.4537443   4.4359990
  71.6552016  39.1122247   4.0538042  71.9689279  37.6314788   4.0247407
  70.6856913  37.8542501   6.6381310  71.1856691  37.9659035   5.8295629
  71.3292521  37.5503554   7.2782118  64.7438909  45.7621130  19.5249151
  64.2605990  46.5621491  19.7313040  64.8299848  45.7729075  18.5716595
  58.0124868  47.5949510   7.4470970  57.9895556  47.6937197   6.4952853
  58.3225505  48.4414661   7.7688136  60.6712246  49.6525665  11.5617585
  61.6255500  49.6209608  11.4947516  60.4724770  49.1916289  12.3767811
  61.2611628  48.2226781  14.1288382  62.0804517  48.7170860  14.1523220
  61.5348436  47.3058749  14.1005950  71.0178225  40.6137534   3.4916338
  70.1304080  40.8987184   3.2736533  71.4332214  40.4531297   2.6443615
  74.3692761  40.6384055   7.2070677  75.1453151  41.1280507   7.4795294
  73.6440895  41.0642109   7.6642547  76.8065319  41.3511674   8.2644618
  77.4009810  41.1107410   7.5537926  76.8791903  40.6318804   8.8918154
  59.0262475  55.1945285   8.5787783  58.8916943  54.4345686   8.0125781
  58.6094537  55.9186185   8.1116571  70.1621438  50.3782208  -2.4135642
  70.8657288  50.5832211  -1.7977987  69.4384087  50.9458970  -2.1486559
  70.9919248  46.1292069   3.7066628  70.9354450  46.5860621   2.8674260
  71.5447591  45.3682754   3.5289471  74.8024054  41.9181801   4.5316748
  74.5460988  41.5178437   5.3624955  74.1776922  42.6325595   4.4066887
  79.1136392  44.6577875   7.0388039  78.5535950  44.7271064   7.8119601
  78.5079895  44.4818859   6.3187535  62.1831601  56.0914602   8.7906225
  62.0663985  57.0360034   8.6884915  61.3624047  55.7888163   9.1792024
  72.0708135  50.8164737  -0.3637182  72.9053739  50.3845936  -0.5459707
  71.9092478  50.6446751   0.5639712  71.7254028  47.3196851   1.0019157
  71.6702831  47.1541122   0.0607601  71.1000083  48.0272884   1.1581347
  56.5146543  42.5564915  14.8280579  57.1605406  42.0463869  15.3167805
  56.3063694  43.2933597  15.4024005  69.0399935  49.6245763  20.3272720
  69.9091094  49.7986415  19.9659355  68.5606686  50.4440179  20.2048449
  65.0350153  36.8204960   0.5804476  65.0228823  37.7646800   0.7372746
  65.9273575  36.6375105   0.2863937  63.2086115  56.7442864  12.0062154
  64.1113362  56.7766474  12.3228649  62.9823485  55.8143315  12.0208489
  64.9639717  55.4973850   8.6672232  64.0135348  55.4975712   8.5536605
  65.2672203  54.7506585   8.1508267  68.8502273  33.4147736   4.8350412
  68.0834668  32.8606223   4.9807095  69.2612978  33.4869605   5.6964564
  60.8544034  39.7032532  18.9255594  61.7175495  39.3469337  19.1358918
  60.2809444  39.3646427  19.6130998  80.6992411  61.3334389   9.7317995
  81.3370821  61.2141136   9.0281335  80.5813253  62.2815232   9.7905947
  77.5082117  61.2861817   9.6679519  77.1700628  61.1702881   8.7800054
  78.3771885  60.8852982   9.6480526  73.3668933  63.1397293   5.6576410
  72.8033798  63.0487230   4.8892698  73.2521328  62.3197198   6.1378903
  77.9901900  62.4396668  15.6265725  77.9790541  62.0449467  14.7546229
  78.1522539  61.7062741  16.2199496  70.9133364  64.6348485   8.4960631
  71.7054656  64.2939309   8.0806930  71.1530015  64.7443460   9.4162784
  78.9468491  66.8068261   0.9690875  78.2956471  67.3922341   0.5824889
  79.7412854  67.3374456   1.0285913  72.8724118  63.8957398   1.3678010
  73.6454994  63.3486385   1.2290885  73.2249517  64.7601647   1.5792471
  74.7109161  65.2233780  14.5744909  74.4199027  66.1279411  14.4591575
  75.3466145  65.2650308  15.2888978  75.6365368  62.6010629  11.1646269
  76.2328940  62.3766651  10.4503231  75.6940339  61.8595374  11.7671716
  75.2090396  60.0550064  -1.0003541  75.4615917  59.5331585  -1.7620078
  74.2714955  59.8916209  -0.8976857  80.2533679  59.0585842   6.8071203
  81.0396768  58.6405266   6.4561620  80.5172383  59.9631935   6.9752851
  80.4243756  64.4958693   1.5059860  79.7889589  64.5693319   2.2180764
  80.0941163  65.0852292   0.8278939  85.6542106  58.9961076   7.7104181
  86.3867278  58.4260292   7.9442011  84.8981462  58.6082676   8.1510687
  74.9286685  61.9578170   1.2020834  74.8122943  61.2823073   1.8701919
  75.0388945  61.4710544   0.3852987  77.2718226  61.4188317   4.9067524
  76.9076433  60.8918938   5.6180445  78.1285342  61.0286786   4.7334009
  83.1767527  52.7082650  12.1698790  82.8450851  53.5778061  11.9460005
  82.5813140  52.3918934  12.8492820  76.9123713  56.4478217  -0.0971128
  77.0798115  57.3158453   0.2699343  76.7220882  56.6105498  -1.0209839
  79.6699046  64.9095196  11.5694703  79.3699769  65.8120234  11.4610510
  79.3250106  64.6427379  12.4215855  73.1211528  61.3608993   7.6031407
  72.1962024  61.2285207   7.8109099  73.3695941  62.1403212   8.1001349
  83.0696190  57.4277736   9.2492140  82.1613067  57.3593144   8.9550901
  83.0183786  57.9049681  10.0773965  76.8912934  58.9035874   0.8875539
  76.7712559  59.3492925   1.7261019  76.1965522  59.2521192   0.3289077
  70.4820339  61.0042266   8.4375196  70.6112720  61.2576745   9.3514608
  69.8017790  61.5969974   8.1179851  74.6519826  71.6739516   4.5365670
  74.5743856  72.6247341   4.6154151  74.0481469  71.3285389   5.1940597
  77.1437056  58.8467381  17.1927037  76.3670390  59.4061302  17.1829902
  77.7827619  59.3324164  17.7141907  84.9357836  55.6294174  11.0270014
  84.2932216  55.9226707  10.3809808  84.4312765  55.5147095  11.8323210
  82.5898000  59.3757347   1.7155873  83.5015856  59.6084734   1.5403571
  82.0807647  59.9594392   1.1530952  75.3983428  61.6552835  16.7545004
  76.1398112  62.1937879  16.4779828  74.6920413  62.2819124  16.9116556
  80.8738768  63.7981975  15.3517166  81.2822124  63.3564386  14.6071798
  80.1516029  63.2234603  15.6051359  77.2269838  58.7354582  12.7250723
  78.0731033  59.1593996  12.8685372  77.1668475  58.0788206  13.4189286
  81.1967582  64.3583166   9.1069455  80.5676445  64.5228880   8.4045522
  80.8093244  64.7724775   9.8780419  85.0756814  65.2937604   6.4613818
  84.3907852  65.6736505   5.9110852  85.1600663  65.9032930   7.1945766
  80.3769283  56.3958950  14.3831896  80.1330215  57.1501011  13.8466172
  80.6529213  56.7744298  15.2179143  82.3307746  62.9397563  13.0609162
  82.5424641  63.5829323  12.3843543  82.2837494  62.1059879  12.5931092
  79.9333975  55.5515383   9.9645734  79.0718454  55.8496637  10.2562472
  79.9596409  55.7685782   9.0326767  76.7495544  64.0957574   6.3719540
  77.2133890  64.3745277   5.5824162  76.4852342  63.1941019   6.1892630
  73.6419625  63.6429056   9.3099303  74.2120982  64.0716324   8.6716787
  74.2327737  63.3611640  10.0083489  75.6864430  60.2180726   3.1809105
  76.3888473  60.6701770   3.6483031  75.3545059  59.5764545   3.8088998
  74.1344792  58.8092483  17.5560314  73.5043452  59.4908764  17.7895711
  74.0280880  58.6975565  16.6113452  69.4289764  58.4764279   8.4826238
  68.6388818  58.7321808   8.0066349  69.9201011  59.2912617   8.5878279
  83.4453574  65.8169518  11.2331519  84.2671017  65.4149705  10.9514201
  83.4415977  65.7137752  12.1847635  71.3804509  58.8408858   5.4409715
  70.5835673  58.9527553   5.9593211  71.1530102  59.1795510   4.5750606
  77.2110177  65.3653562  13.3892230  77.2754610  65.8273969  14.2250401
  76.5021101  64.7350926  13.5174540  67.7127467  58.7294769  10.9141229
  67.9635506  59.6141779  11.1798805  68.2487015  58.5499371  10.1416321
  91.5359567  62.1608267   7.5816491  90.7823275  61.5915665   7.4260495
  91.6707108  62.1270931   8.5287125  76.9258195  67.0321669   3.2571210
  76.7903870  67.8773205   3.6856058  77.4668007  67.2340947   2.4937144
  73.4125534  53.1113249  19.9185565  73.0192480  52.5579447  20.5933209
  74.2291675  53.4223827  20.3092083  70.3787592  64.5497107   3.8299135
  70.8912113  65.3440357   3.9804700  71.0310305  63.8523397   3.7632737
  72.1882477  67.6662863   5.9121888  72.3649105  68.5880828   5.7242872
  72.9839310  67.3521283   6.3416268  76.3293495  54.5271128  17.5105822
  77.0703209  55.1278281  17.4310284  76.5611418  53.7848766  16.9523864
  71.4734833  59.7127495  15.7884051  71.3588349  58.8112752  16.0891150
  70.6179351  59.9591192  15.4368868  78.5526671  67.6545236  17.3871552
  78.1090525  66.8681614  17.0692457  79.2143885  67.8424386  16.7215443
  73.3113792  69.1841037  11.9132231  73.8621217  69.0558100  11.1409225
  72.4725268  69.4835926  11.5627123  80.6507909  67.9348035  15.4152953
  80.6326385  68.7556916  14.9233223  81.5727829  67.8102111  15.6403095
  77.1080963  65.4492165  16.2576462  77.6409300  64.6880453  16.0275770
  76.5795044  65.1565817  17.0000616  80.2750658  50.5552231  11.7870103
  79.9314928  51.4453873  11.7109214  80.6429621  50.3653889  10.9239688
  68.3436509  62.8785761   4.6058706  69.1811731  63.2882770   4.3892413
  68.5214777  61.9385203   4.5758899  80.2400941  60.5460842   0.2942539
  79.7247564  61.3165447   0.5330926  79.9678250  59.8725978   0.9175600
  77.8248052  55.3910543   5.3527777  76.9689648  55.0017393   5.1733416
  78.2375004  55.4702504   4.4927562  79.3547199  52.9256886   9.7519337
  78.8511994  52.8887021   8.9387142  79.6477806  53.8349629   9.8115993
  75.5990085  53.0095616   8.7585518  76.4643081  52.8138424   8.3991408
  75.6667594  52.7805968   9.6854875  85.2135215  63.2993197   2.2295712
  84.4364658  62.9604356   1.7850874  85.8926696  63.3045820   1.5550677
  80.0287244  58.4187934   2.1202320  79.7237380  58.7334083   2.9712463
  80.9817686  58.4969354   2.1629653  78.4733676  64.5778157   3.7695274
  77.9455038  63.8430917   3.4568511  77.9721179  65.3552834   3.5235242
  83.4526522  62.7727178   8.8862320  82.7950197  63.4626439   8.9742449
  84.2566921  63.1623610   9.2296306  73.2052404  55.2397824   6.1301885
  73.7796156  55.0173005   5.3975078  73.7923386  55.3086518   6.8830487
  82.2631981  61.1271551   6.9366262  82.7763863  61.7601542   7.4387972
  82.9133205  60.5272746   6.5709622  73.5321991  57.2702285   0.1497771
  72.6959303  57.6076971   0.4707045  73.3926760  57.1351264  -0.7875093
  75.5075071  52.1139073   4.8576955  74.8539484  51.7988090   4.2333569
  75.4655546  51.4914813   5.5836778  76.6186276  62.3958368  -3.2269753
  75.7113338  62.1647621  -3.0278604  77.1157308  61.5995987  -3.0395772
  78.7412812  58.6021006   9.1824602  77.8235373  58.8235953   9.0246290
  79.1572955  58.6767317   8.3236310  79.5247860  60.0012422   4.3127283
  80.2719678  60.5133819   4.0034405  79.7939449  59.6796475   5.1731676
  77.7974510  62.4970963   1.2954237  76.8885729  62.2129995   1.3926707
  77.8269593  62.9170041   0.4357544  83.0293777  66.1077552   5.0645404
  82.5756104  65.2668462   5.1210595  82.3987744  66.7438950   5.4020185
  81.9726697  57.0369538   6.2946072  81.2349453  56.5246924   6.6256314
  82.2253470  56.5969920   5.4829349  81.4726716  67.9454049   5.9995223
  81.7649691  68.5059106   5.2807588  81.9825337  68.2382610   6.7548382
  82.0738324  49.8145790   6.8887841  82.3797201  48.9543153   6.6013756
  82.7990929  50.4063410   6.6886835  68.3662680  60.2176477   5.2769439
  68.1687080  59.6245837   4.5520506  67.8109344  59.9128687   5.9945378
  76.3459404  60.1099583   7.3964032  76.4008014  59.1573420   7.3206509
  75.5350606  60.2659022   7.8805331  77.4950597  64.0379706  -1.3657685
  77.0570027  63.3215565  -1.8252047  78.2361038  64.2655821  -1.9272593
  74.2851764  58.7276643   5.1554411  73.4719629  59.0270813   5.5619603
  74.7810758  58.3332332   5.8728893  76.4360342  68.7234400   7.0888676
  76.3936520  68.9495246   6.1597208  77.3523040  68.4897774   7.2374477
  79.8825975  59.1918467  13.9869305  80.2375363  59.4189940  14.8463771
  80.5298107  59.5236844  13.3646560  85.6123712  62.3136903   4.6918634
  85.4741611  62.5038499   3.7639823  85.2559931  63.0756286   5.1486685
  73.7765838  56.2994998  10.7715646  74.4165218  56.1583757  10.0738609
  72.9443369  56.0129512  10.3954248  85.6393092  64.3813430   9.7029905
  86.0729599  64.2888719  10.5512960  86.3524673  64.3570931   9.0649921
  74.5526142  65.5997429   6.8850638  75.3466741  65.1047749   6.6833213
  73.8417835  65.0715292   6.5218344  79.3720987  67.9815524  11.2363006
  79.4258009  68.5506461  12.0040722  78.5035768  68.1517409  10.8717043
  70.8608906  59.7440511   2.9610391  69.9306494  59.6824966   3.1780353
  70.9566378  59.2216463   2.1647032  70.7794455  56.2695323   5.5488633
  71.0401272  57.1840657   5.4397793  71.6011627  55.8019766   5.6985246
  72.2519380  57.6833081  12.7187457  72.9242434  57.4750443  12.0700106
  71.4249167  57.4855167  12.2792690  86.5008641  64.4237131  12.2362791
  86.6944532  65.3282941  12.4822066  86.4009260  63.9644550  13.0701376
  78.1544952  54.3095021  14.7353118  77.5072867  55.0084971  14.6417595
  78.9245968  54.7431165  15.1029366  81.5623750  64.5743874  17.8103672
  81.4109257  64.3454425  16.8933755  81.5528430  65.5314475  17.8235017
  78.3309087  62.1475786  12.7949938  79.2601147  62.2986946  12.6218905
  77.9100117  62.2359807  11.9398584  77.1297418  66.1726451  10.5648476
  76.9908504  65.8045235  11.4374414  76.3412015  66.6874090  10.3932433
  77.7245570  71.2735547   1.9074012  77.8997326  70.8023590   2.7219635
  77.0378358  71.9001313   2.1355273  78.6802633  65.5508053   7.9537313
  78.3452466  65.5108823   8.8494963  78.1806579  64.8852769   7.4807724
  72.6546877  60.9575684  13.4789895  72.5166675  60.2255922  14.0801434
  73.5651801  60.8684584  13.1974082  81.6161825  62.8964088  -1.7725627
  80.9990996  62.1710916  -1.8692574  81.1478314  63.6573448  -2.1158553
  75.2829178  60.6695643  12.9673574  75.9928797  60.0288835  12.9260193
  75.2398486  60.9208538  13.8899755  83.2715957  67.6062996  15.8880153
  83.2128503  66.9222216  15.2210736  83.6735475  68.3481986  15.4360779
  73.9958112  57.6560861  14.7869214  73.4595469  57.2051599  15.4390810
  73.4074821  57.7906770  14.0439678  72.2906656  74.4224910   8.6813872
  72.5303254  75.0543434   9.3592891  71.4475852  74.0712950   8.9679232
  73.4060371  57.1149512  -2.6504323  72.5289837  56.9938313  -3.0142076
  73.8818124  56.3235590  -2.9025434  83.2733364  65.5702580  14.1194133
  82.3860143  65.2328502  14.2420532  83.8431915  64.8385611  14.3562898
  64.9262511  61.9026672   7.4437184  65.6133551  61.5888402   6.8558200
  64.7710640  62.8068037   7.1704436  69.7297233  56.7916868  11.8722208
  69.6455422  56.1842538  11.1372618  68.9079940  57.2825887  11.8731704
  76.8034517  70.2304032  11.0855376  76.7304689  71.0359004  11.5974681
  76.3611911  70.4295998  10.2603398  76.5924297  69.4675803   4.5958198
  75.8091819  70.0097483   4.6896422  77.2917042  69.9849782   4.9952439
  79.9020947  55.2770432   7.2392403  80.3989647  54.5240394   6.9193473
  79.1307929  55.3134749   6.6735613  87.7550705  60.9810797   8.8810695
  87.7440581  61.8635513   8.5104628  86.8868084  60.6282348   8.6865232
  79.2633201  70.1290867  13.2413535  79.9761173  70.7638331  13.1689436
  78.7723230  70.2254732  12.4253537  80.9850728  64.0342119   4.8130827
  80.0507007  64.1543582   4.6435531  81.1627396  63.1314586   4.5490836
  76.4855916  57.4187815   6.9664088  76.1153703  56.8658855   7.6544993
  76.9815008  56.8145948   6.4139088  84.3723279  59.8759438   5.3480861
  84.8383731  60.7087430   5.2741163  84.8230780  59.4104420   6.0526119
  74.3145114  67.8785310  14.0619106  75.0154574  68.5121793  14.2148500
  73.8440229  68.2200042  13.3014745  82.4399510  66.2203260   2.3467013
  82.7159354  66.1059854   3.2560887  81.5704009  65.8220745   2.3079186
  82.3439942  52.2440025   9.3871762  81.4303022  52.4744252   9.5553969
  82.7733043  52.3278470  10.2385794  82.1146400  60.4329917  11.8871656
  81.4617851  60.6805825  11.2324109  82.4926780  59.6194056  11.5534133
  79.0753574  70.4689611   5.9899826  79.2575969  69.6511267   6.4527579
  79.8986560  70.6857303   5.5524716  79.4095740  69.3957796   3.2514875
  79.9383506  68.8850250   2.6385037  79.6723959  69.0800326   4.1160408
  78.1633973  61.1749728  18.3737693  77.4874610  61.0743858  19.0440068
  78.9861607  61.0188942  18.8373690  69.9112833  67.4121665  10.9950208
  70.4966269  66.6665353  11.1278113  69.7137671  67.7225622  11.8786872
  72.7651488  70.4472912   6.0112651  72.0961863  70.9319040   5.5276691
  72.6264357  70.6942133   6.9256029  64.5030487  59.9827265   9.7154652
  64.5414587  59.4490856  10.5091770  63.9970780  59.4562471   9.0965629
  76.9056756  72.4816656  12.6095309  77.4575064  72.6448277  13.3744394
  77.2462950  73.0721094  11.9375334  71.8821250  54.8291806  13.2117194
  71.9462576  55.6906637  12.7994592  71.8188370  54.2165807  12.4789552
  71.3573522  56.9014938  16.8590228  71.9845561  56.5192016  17.4727752
  70.5001441  56.6829140  17.2245921  81.7567631  67.3077913  18.4643964
  82.3007535  67.9207872  17.9698918  81.1754476  67.8657492  18.9810977
  68.1339065  58.7091367   2.7908583  68.4292506  57.8002046   2.7375637
  67.2327101  58.6879107   2.4689585  80.0425144  70.4298631   9.5958991
  79.9176283  69.6288371   9.0869937  80.7004235  70.9244825   9.1072961
  71.6633312  56.7847364   8.7736132  70.9419898  57.3983332   8.6343605
  72.4526568  57.3205129   8.6952777  82.1060052  68.2307652  11.2238541
  81.1590388  68.1113003  11.1516868  82.4542825  67.3430150  11.3064803
  74.4659625  54.1201790  15.0476783  74.9894027  54.3664087  15.8103093
  74.2471959  54.9521825  14.6279921  69.8626906  56.3905465   2.9147908
  69.5339613  55.5102844   2.7323014  70.2166277  56.3353134   3.8024297
  79.1106485  68.0260368   7.4242894  78.9631448  67.0977075   7.6050464
  79.9359979  68.0480458   6.9399969  72.9768730  56.6778435   3.2823386
  73.3164802  57.2064356   2.5601994  73.4240850  57.0158841   4.0581952
  82.7140607  68.8488926   8.5107766  83.6387155  68.6431788   8.3732218
  82.5455911  68.6005328   9.4197108  75.6712170  55.0615486  12.7326454
  75.3308991  54.2623299  13.1347134  74.9651177  55.3617196  12.1603287
  76.3228642  52.1464798  11.1853777  77.1454712  51.6725276  11.0632667
  76.5666706  52.9255282  11.6852463  74.9636877  55.1753056   1.4816679
  75.6845239  55.5534309   0.9780395  74.3402181  55.8941933   1.5851656
  79.1068000  55.8798205   2.4175011  79.3231614  56.7622843   2.1163839
  78.6262067  55.4884419   1.6880653  73.8467221  58.8383919   8.9945755
  73.7011802  59.1524222   9.8870037  73.3692425  59.4568819   8.4416654
  75.7063604  55.8286467   9.0426645  75.6925173  54.9327560   8.7058943
  76.4236032  55.8357130   9.6764931  77.5589735  56.2623807  11.0879772
  77.3007512  57.1840877  11.0864103  77.0274775  55.8654241  11.7780237
  82.5035923  69.3674594   3.8669858  82.6772801  68.8021016   3.1143710
  82.9964815  70.1675489   3.6849348  68.3212883  61.3789263  11.9333417
  67.7766351  62.1549071  12.0653691  69.1992233  61.7260067  11.7752538
  75.1100500  54.7100847   4.3114215  75.2316411  53.7817493   4.5105103
  74.8202542  54.7239533   3.3992531  77.9791690  52.3955757   7.4480935
  78.0013387  52.4595090   6.4932915  78.3959749  51.5560266   7.6421441
  88.3575315  62.1311017   5.4860158  88.8006461  61.3818342   5.0879281
  87.4801825  62.1221153   5.1033890  83.4911096  68.6841358   0.9666756
  84.1862000  69.3048051   1.1854071  83.8334246  67.8336710   1.2419134
  69.1078905  60.5059159  14.8263574  68.3660641  60.6541795  15.4128204
  68.7871649  60.7667425  13.9630323  85.3902519  66.1341064   2.4954087
  85.9153843  66.4728337   1.7703407  85.3024872  65.1988079   2.3117222
  77.0522568  70.0475138  14.6243964  77.3609694  69.8024284  15.4966663
  77.8498050  70.2521776  14.1362834  77.0743180  72.2013047   6.8549340
  76.6348170  71.7089426   7.5482197  77.8251297  71.6586015   6.6141415
  69.5535519  68.3924588   6.8573968  70.3793539  68.0928360   6.4772612
  69.2029571  67.6232210   7.3063757  74.5217052  67.7451056   8.9271642
  73.8997061  67.0821761   8.6273870  75.1921919  67.7712188   8.2445290
  67.7544124  66.3110914   7.8162902  66.9176032  65.8833089   7.6346903
  67.7267769  66.5043358   8.7533693  74.5941579  56.2232844  18.5204148
  74.6429735  57.0994967  18.1381917  75.1364094  55.6810237  17.9475791
  85.0796425  66.7673968  17.8005285  84.2891969  66.7498106  17.2609784
  84.8429780  67.3062261  18.5554321  85.1994300  63.6166434  15.1138013
  85.2492305  63.4516441  16.0553536  85.0908223  62.7493693  14.7235894
  74.0830559  66.2954980   2.4030102  74.2318679  66.9790444   1.7496775
  74.8897002  66.2760070   2.9179558  82.4898062  59.5997362  16.4297320
  83.3907925  59.4603827  16.1381318  82.5646037  59.7651817  17.3695498
  76.8240868  56.9764217  15.2750506  75.9544177  57.2697783  15.0033095
  77.0600348  57.5604662  15.9957770  86.7012497  66.0363375  15.3580035
  86.4097305  66.3993356  16.1943496  86.0884628  65.3230384  15.1793367
  87.9008179  63.6016255   7.8782605  88.7355071  64.0406059   8.0420166
  88.0367308  63.1254908   7.0590851  84.9499685  61.1595990  13.8260093
  85.4253807  61.3523636  13.0178944  84.0265251  61.2155176  13.5803477
  71.8383192  62.3220157   3.4091171  71.5929234  61.4182487   3.6071381
  72.0079106  62.3237308   2.4670649  79.5279902  53.1943834  12.7915927
  80.0461846  53.9304861  12.4662415  79.1735034  53.5007827  13.6262686
  71.1078839  58.0548515   0.9077333  70.4148084  58.1292870   0.2517369
  70.8630591  57.2908858   1.4298850  79.7792496  49.6144116   8.3116823
  80.0594250  48.9467305   8.9377250  80.5643103  49.8073212   7.7991487
  77.5825964  68.7903110  -0.1258150  77.0099931  69.4093297  -0.5787678
  78.1558758  69.3402472   0.4081772  83.6501354  58.0361750  12.0588399
  84.6018777  58.1359848  12.0800623  83.4804805  57.2440019  12.5686483
  81.6715734  55.1217333  12.2447799  81.0765666  55.4022346  11.5494288
  81.3865430  55.6111234  13.0164541  80.8023224  69.0740260   1.0050432
  81.7353897  69.0085822   1.2083308  80.7146437  69.9096527   0.5464965
  86.1289432  61.2567870  11.1730698  86.0965752  60.3183871  11.3590382
  86.7390056  61.3351907  10.4396523  77.9672763  60.1263923  -2.7842098
  78.9131868  59.9970131  -2.7153680  77.5887008  59.3878585  -2.3072670
  86.2783920  58.0478913  11.2188981  85.7622969  57.2637370  11.0318910
  87.1623869  57.7197630  11.3835501  83.9394647  51.7919929   7.1784794
  83.7419468  51.4835017   8.0628126  84.5494353  52.5181568   7.3082724
  91.9465982  62.3183877  10.3136735  92.6769370  62.0569165  10.8744438
  91.3372927  61.5812599  10.3538803  90.0281279  60.4591739  10.9111186
  89.3014443  60.3247704  10.3027678  89.6128566  60.7668568  11.7167904
  77.8511455  64.1781669  18.6758559  78.7714465  64.3560268  18.8698606
  77.8161038  63.2337714  18.5238258  76.1515680  58.0513899  -2.8487213
  75.2447135  57.7547012  -2.7724499  76.4291661  57.7543717  -3.7152926
  67.0693620  59.3720263   7.6011834  66.7496405  58.5185571   7.3086208
  66.5227049  59.5868841   8.3569801  70.8473528  62.0882704  11.3181340
  71.0659538  63.0199811  11.3369374  71.2599302  61.7290678  12.1036144
  77.7677746  52.5950789   3.3057029  76.9578474  52.2497874   3.6812275
  78.4562163  52.2858333   3.8944640  79.6968294  51.6728836   4.9281325
  80.2499333  52.0924289   5.5871348  79.9338380  50.7464584   4.9704281
  75.7201393  57.6615909  20.7084089  75.6198120  58.6110266  20.6396180
  75.5022935  57.3334148  19.8360159  74.9214465  54.9100834  -2.7075233
  75.7833629  55.2355733  -2.4479416  75.1064809  54.1232330  -3.2202168
  66.9381880  62.9923174   9.5704955  66.2445352  62.5777127   9.0574910
  67.6854871  63.0343711   8.9738374  83.0747101  53.7829361   4.4359990
  82.4945770  54.4414165   4.0538042  82.8083034  52.9606705   4.0247407
  81.5250667  53.1834419   6.6381310  82.0250446  53.2950953   5.8295629
  82.1686275  52.8795471   7.2782118  75.5832663  61.0913048  19.5249151
  75.0999745  61.8913408  19.7313040  75.6693602  61.1020993  18.5716595
  68.8518623  62.9241428   7.4470970  68.8289311  63.0229115   6.4952853
  69.1619259  63.7706579   7.7688136  71.5106001  64.9817583  11.5617585
  72.4649254  64.9501525  11.4947516  71.3118524  64.5208207  12.3767811
  72.1005383  63.5518699  14.1288382  72.9198272  64.0462778  14.1523220
  72.3742191  62.6350667  14.1005950  81.8571979  55.9429451   3.4916338
  80.9697834  56.2279102   3.2736533  82.2725968  55.7823215   2.6443615
  85.2086515  55.9675972   7.2070677  85.9846905  56.4572425   7.4795294
  84.4834649  56.3934026   7.6642547  87.6459074  56.6803591   8.2644618
  88.2403565  56.4399327   7.5537926  87.7185658  55.9610722   8.8918154
  69.8656230  70.5237202   8.5787783  69.7310697  69.7637603   8.0125781
  69.4488292  71.2478102   8.1116571  81.0015193  65.7074126  -2.4135642
  81.7051043  65.9124128  -1.7977987  80.2777841  66.2750888  -2.1486559
  81.8313003  61.4583987   3.7066628  81.7748204  61.9152539   2.8674260
  82.3841345  60.6974672   3.5289471  85.6417809  57.2473719   4.5316748
  85.3854743  56.8470355   5.3624955  85.0170677  57.9617513   4.4066887
  89.9530147  59.9869792   7.0388039  89.3929705  60.0562982   7.8119601
  89.3473650  59.8110777   6.3187535  73.0225355  71.4206519   8.7906225
  72.9057740  72.3651952   8.6884915  72.2017802  71.1180081   9.1792024
  82.9101890  66.1456655  -0.3637182  83.7447494  65.7137854  -0.5459707
  82.7486233  65.9738669   0.5639712  82.5647782  62.6488768   1.0019157
  82.5096586  62.4833040   0.0607601  81.9393837  63.3564801   1.1581347
  67.3540297  57.8856833  14.8280579  67.9999161  57.3755787  15.3167805
  67.1457448  58.6225514  15.4024005  79.8793689  64.9537680  20.3272720
  80.7484849  65.1278333  19.9659355  79.4000441  65.7732097  20.2048449
  75.8743908  52.1496877   0.5804476  75.8622577  53.0938717   0.7372746
  76.7667329  51.9667023   0.2863937  74.0479870  72.0734781  12.0062154
  74.9507116  72.1058392  12.3228649  73.8217240  71.1435232  12.0208489
  75.8033472  70.8265768   8.6672232  74.8529103  70.8267629   8.5536605
  76.1065958  70.0798502   8.1508267  79.6896027  48.7439654   4.8350412
  78.9228423  48.1898141   4.9807095  80.1006732  48.8161523   5.6964564
  71.6937788  55.0324450  18.9255594  72.5569250  54.6761255  19.1358918
  71.1203199  54.6938345  19.6130998  91.5386165  76.6626306   9.7317995
  92.1764575  76.5433054   9.0281335  91.4207008  77.6107150   9.7905947
  88.3475871  76.6153734   9.6679519  88.0094383  76.4994799   8.7800054
  89.2165640  76.2144899   9.6480526  88.8295654  77.7688586  15.6265725
  88.8184295  77.3741384  14.7546229  88.9916294  77.0354659  16.2199496
  81.7527119  79.9640402   8.4960631  82.5448411  79.6231227   8.0806930
  81.9923769  80.0735377   9.4162784  85.5502915  80.5525698  14.5744909
  85.2592781  81.4571329  14.4591575  86.1859900  80.5942225  15.2888978
  86.4759122  77.9302546  11.1646269  87.0722695  77.7058569  10.4503231
  86.5334094  77.1887292  11.7671716  91.0927434  74.3877760   6.8071203
  91.8790523  73.9697183   6.4561620  91.3566138  75.2923852   6.9752851
  94.0161281  68.0374567  12.1698790  93.6844606  68.9069978  11.9460005
  93.4206894  67.7210851  12.8492820  90.5092801  80.2387113  11.5694703
  90.2093524  81.1412152  11.4610510  90.1643860  79.9719297  12.4215855
  83.9605282  76.6900910   7.6031407  83.0355778  76.5577124   7.8109099
  84.2089695  77.4695129   8.1001349  93.9089944  72.7569654   9.2492140
  93.0006822  72.6885062   8.9550901  93.8577540  73.2341598  10.0773965
  81.3214093  76.3334184   8.4375196  81.4506474  76.5868663   9.3514608
  80.6411544  76.9261892   8.1179851  87.9830810  74.1759299  17.1927037
  87.2064144  74.7353219  17.1829902  88.6221373  74.6616082  17.7141907
  95.7751591  70.9586092  11.0270014  95.1325971  71.2518625  10.3809808
  95.2706519  70.8439012  11.8323210  86.2377182  76.9844752  16.7545004
  86.9791867  77.5229796  16.4779828  85.5314168  77.6111041  16.9116556
  91.7132522  79.1273893  15.3517166  92.1215878  78.6856303  14.6071798
  90.9909784  78.5526520  15.6051359  88.0663592  74.0646500  12.7250723
  88.9124787  74.4885913  12.8685372  88.0062230  73.4080124  13.4189286
  91.2163037  71.7250868  14.3831896  90.9723969  72.4792929  13.8466172
  91.4922968  72.1036216  15.2179143  93.1701500  78.2689480  13.0609162
  93.3818395  78.9121240  12.3843543  93.1231248  77.4351797  12.5931092
  90.7727729  70.8807301   9.9645734  89.9112208  71.1788555  10.2562472
  90.7990164  71.0977700   9.0326767  84.4813380  78.9720973   9.3099303
  85.0514737  79.4008242   8.6716787  85.0721491  78.6903558  10.0083489
  84.9738546  74.1384401  17.5560314  84.3437207  74.8200682  17.7895711
  84.8674634  74.0267482  16.6113452  80.2683519  73.8056197   8.4826238
  79.4782573  74.0613725   8.0066349  80.7594766  74.6204535   8.5878279
  82.2198264  74.1700776   5.4409715  81.4229427  74.2819470   5.9593211
  81.9923856  74.5087428   4.5750606  88.0503932  80.6945479  13.3892230
  88.1148364  81.1565886  14.2250401  87.3414855  80.0642844  13.5174540
  78.5521222  74.0586687  10.9141229  78.8029260  74.9433697  11.1798805
  79.0880770  73.8791289  10.1416321  84.2519289  68.4405167  19.9185565
  83.8586234  67.8871365  20.5933209  85.0685429  68.7515745  20.3092083
  87.1687250  69.8563046  17.5105822  87.9096963  70.4570199  17.4310284
  87.4005173  69.1140683  16.9523864  82.3128588  75.0419413  15.7884051
  82.1982103  74.1404670  16.0891150  81.4573106  75.2883110  15.4368868
  89.3920426  82.9837153  17.3871552  88.9484280  82.1973532  17.0692457
  90.0537639  83.1716304  16.7215443  84.1507547  84.5132955  11.9132231
  84.7014972  84.3850018  11.1409225  83.3119023  84.8127844  11.5627123
  91.4901664  83.2639953  15.4152953  91.4720139  84.0848834  14.9233223
  92.4121584  83.1394028  15.6403095  87.9474718  80.7784083  16.2576462
  88.4803055  80.0172371  16.0275770  87.4188799  80.4857734  17.0000616
  91.1144413  65.8844149  11.7870103  90.7708682  66.7745790  11.7109214
  91.4823375  65.6945806  10.9239688  79.1830263  78.2077679   4.6058706
  80.0205485  78.6174687   4.3892413  79.3608531  77.2677121   4.5758899
  88.6641807  70.7202460   5.3527777  87.8083403  70.3309311   5.1733416
  89.0768758  70.7994421   4.4927562  90.1940953  68.2548804   9.7519337
  89.6905749  68.2178939   8.9387142  90.4871560  69.1641546   9.8115993
  86.4383839  68.3387533   8.7585518  87.3036836  68.1430342   8.3991408
  86.5061348  68.1097885   9.6854875  84.0446158  70.5689741   6.1301885
  84.6189910  70.3464923   5.3975078  84.6317141  70.6378436   6.8830487
  86.3468826  67.4430990   4.8576955  85.6933238  67.1280007   4.2333569
  86.3049300  66.8206731   5.5836778  89.5806566  73.9312924   9.1824602
  88.6629128  74.1527871   9.0246290  89.9966710  74.0059234   8.3236310
  92.9132078  65.1437708   6.8887841  93.2190955  64.2835071   6.6013756
  93.6384683  65.7355328   6.6886835  79.2056435  75.5468394   5.2769439
  79.0080834  74.9537755   4.5520506  78.6503099  75.2420605   5.9945378
  87.1853158  75.4391501   7.3964032  87.2401768  74.4865337   7.3206509
  86.3744360  75.5950940   7.8805331  85.1245518  74.0568561   5.1554411
  84.3113384  74.3562731   5.5619603  85.6204512  73.6624249   5.8728893
  90.7219730  74.5210385  13.9869305  91.0769118  74.7481858  14.8463771
  91.3691861  74.8528762  13.3646560  84.6159593  71.6286916  10.7715646
  85.2558972  71.4875675  10.0738609  83.7837123  71.3421429  10.3954248
  90.2114741  83.3107442  11.2363006  90.2651764  83.8798378  12.0040722
  89.3429523  83.4809327  10.8717043  81.6188209  71.5987241   5.5488633
  81.8795027  72.5132574   5.4397793  82.4405382  71.1311684   5.6985246
  83.0913135  73.0124998  12.7187457  83.7636188  72.8042360  12.0700106
  82.2642921  72.8147084  12.2792690  88.9938707  69.6386939  14.7353118
  88.3466622  70.3376889  14.6417595  89.7639722  70.0723083  15.1029366
  92.4017505  79.9035791  17.8103672  92.2503011  79.6746343  16.8933755
  92.3922184  80.8606393  17.8235017  89.1702841  77.4767704  12.7949938
  90.0994901  77.6278864  12.6218905  88.7493871  77.5651725  11.9398584
  87.9691173  81.5018368  10.5648476  87.8302258  81.1337153  11.4374414
  87.1805769  82.0166008  10.3932433  83.4940632  76.2867601  13.4789895
  83.3560430  75.5547840  14.0801434  84.4045555  76.1976501  13.1974082
  86.1222933  75.9987561  12.9673574  86.8322551  75.3580753  12.9260193
  86.0792241  76.2500455  13.8899755  94.1109711  82.9354914  15.8880153
  94.0522257  82.2514134  15.2210736  94.5129230  83.6773904  15.4360779
  84.8351867  72.9852778  14.7869214  84.2989224  72.5343517  15.4390810
  84.2468575  73.1198687  14.0439678  94.1127119  80.8994498  14.1194133
  93.2253897  80.5620420  14.2420532  94.6825670  80.1677529  14.3562898
  75.7656266  77.2318590   7.4437184  76.4527305  76.9180320   6.8558200
  75.6104394  78.1359954   7.1704436  80.5690988  72.1208786  11.8722208
  80.4849177  71.5134456  11.1372618  79.7473694  72.6117804  11.8731704
  90.7414702  70.6062350   7.2392403  91.2383401  69.8532312   6.9193473
  89.9701683  70.6426666   6.6735613  90.1026955  85.4582784  13.2413535
  90.8154928  86.0930249  13.1689436  89.6116984  85.5546650  12.4253537
  87.3249670  72.7479733   6.9664088  86.9547458  72.1950773   7.6544993
  87.8208763  72.1437866   6.4139088  85.1538869  83.2077228  14.0619106
  85.8548328  83.8413711  14.2148500  84.6833984  83.5491959  13.3014745
  93.1833696  67.5731943   9.3871762  92.2696776  67.8036170   9.5553969
  93.6126798  67.6570387  10.2385794  92.9540155  75.7621835  11.8871656
  92.3011605  76.0097743  11.2324109  93.3320535  74.9485973  11.5534133
  89.0027728  76.5041646  18.3737693  88.3268365  76.4035775  19.0440068
  89.8255362  76.3480860  18.8373690  80.7506587  82.7413583  10.9950208
  81.3360024  81.9957271  11.1278113  80.5531425  83.0517539  11.8786872
  75.3424242  75.3119183   9.7154652  75.3808341  74.7782774  10.5091770
  74.8364535  74.7854388   9.0965629  82.7215004  70.1583723  13.2117194
  82.7856331  71.0198554  12.7994592  82.6582124  69.5457725  12.4789552
  82.1967277  72.2306856  16.8590228  82.8239315  71.8483933  17.4727752
  81.3395195  72.0121058  17.2245921  92.5961385  82.6369831  18.4643964
  93.1401289  83.2499789  17.9698918  92.0148230  83.1949410  18.9810977
  78.9732819  74.0383285   2.7908583  79.2686260  73.1293963   2.7375637
  78.0720855  74.0171025   2.4689585  82.5027066  72.1139282   8.7736132
  81.7813652  72.7275249   8.6343605  83.2920322  72.6497046   8.6952777
  85.3053380  69.4493708  15.0476783  85.8287782  69.6956005  15.8103093
  85.0865713  70.2813743  14.6279921  80.7020661  71.7197383   2.9147908
  80.3733367  70.8394762   2.7323014  81.0560032  71.6645051   3.8024297
  83.8162484  72.0070353   3.2823386  84.1558557  72.5356274   2.5601994
  84.2634605  72.3450759   4.0581952  86.5105925  70.3907403  12.7326454
  86.1702745  69.5915216  13.1347134  85.8044931  70.6909114  12.1603287
  87.1622397  67.4756716  11.1853777  87.9848466  67.0017194  11.0632667
  87.4060460  68.2547199  11.6852463  84.6860976  74.1675836   8.9945755
  84.5405556  74.4816139   9.8870037  84.2086179  74.7860737   8.4416654
  86.5457358  71.1578384   9.0426645  86.5318927  70.2619478   8.7058943
  87.2629786  71.1649048   9.6764931  88.3983489  71.5915724  11.0879772
  88.1401267  72.5132795  11.0864103  87.8668529  71.1946159  11.7780237
  79.1606638  76.7081181  11.9333417  78.6160106  77.4840989  12.0653691
  80.0385988  77.0551985  11.7752538  85.9494254  70.0392765   4.3114215
  86.0710166  69.1109411   4.5105103  85.6596297  70.0531451   3.3992531
  88.8185445  67.7247675   7.4480935  88.8407142  67.7887008   6.4932915
  89.2353504  66.8852184   7.6421441  79.9472660  75.8351077  14.8263574
  79.2054396  75.9833712  15.4128204  79.6265404  76.0959343  13.9630323
  87.8916322  85.3767055  14.6243964  88.2003449  85.1316202  15.4966663
  88.6891804  85.5813694  14.1362834  78.5937878  81.6402832   7.8162902
  77.7569787  81.2125007   7.6346903  78.5661524  81.8335275   8.7533693
  85.4335334  71.5524762  18.5204148  85.4823489  72.4286885  18.1381917
  85.9757848  71.0102155  17.9475791  95.9190180  82.0965885  17.8005285
  95.1285723  82.0790024  17.2609784  95.6823534  82.6354179  18.5554321
  96.0388055  78.9458352  15.1138013  96.0886060  78.7808359  16.0553536
  95.9301978  78.0785611  14.7235894  93.3291817  74.9289280  16.4297320
  94.2301680  74.7895744  16.1381318  93.4039791  75.0943734  17.3695498
  87.6634622  72.3056134  15.2750506  86.7937932  72.5989700  15.0033095
  87.8994103  72.8896579  15.9957770  97.5406251  81.3655293  15.3580035
  97.2491060  81.7285274  16.1943496  96.9278383  80.6522301  15.1793367
  95.7893440  76.4887908  13.8260093  96.2647561  76.6815554  13.0178944
  94.8659005  76.5447094  13.5803477  90.3673656  68.5235751  12.7915927
  90.8855600  69.2596778  12.4662415  90.0128789  68.8299745  13.6262686
  90.6186250  64.9436034   8.3116823  90.8988004  64.2759223   8.9377250
  91.4036857  65.1365129   7.7991487  94.4895109  73.3653668  12.0588399
  95.4412532  73.4651765  12.0800623  94.3198559  72.5731936  12.5686483
  92.5109488  70.4509251  12.2447799  91.9159420  70.7314264  11.5494288
  92.2259185  70.9403152  13.0164541  96.9683186  76.5859787  11.1730698
  96.9359507  75.6475788  11.3590382  97.5783810  76.6643824  10.4396523
  97.1177675  73.3770831  11.2188981  96.6016724  72.5929288  11.0318910
  98.0017623  73.0489548  11.3835501  94.7788402  67.1211846   7.1784794
  94.5813223  66.8126935   8.0628126  95.3888107  67.8473485   7.3082724
  88.6905210  79.5073587  18.6758559  89.6108219  79.6852186  18.8698606
  88.6554793  78.5629632  18.5238258  77.9087375  74.7012180   7.6011834
  77.5890159  73.8477488   7.3086208  77.3620803  74.9160758   8.3569801
  81.6867282  77.4174621  11.3181340  81.9053292  78.3491729  11.3369374
  82.0993056  77.0582596  12.1036144  88.6071500  67.9242707   3.3057029
  87.7972228  67.5789792   3.6812275  89.2955917  67.6150250   3.8944640
  90.5362048  67.0020753   4.9281325  91.0893087  67.4216207   5.5871348
  90.7732135  66.0756501   4.9704281  86.5595148  72.9907827  20.7084089
  86.4591875  73.9402184  20.6396180  86.3416690  72.6626066  19.8360159
  77.7775635  78.3215092   9.5704955  77.0839106  77.9069045   9.0574910
  78.5248626  78.3635628   8.9738374  92.3644422  68.5126336   6.6381310
  92.8644200  68.6242871   5.8295629  93.0080030  68.2087389   7.2782118
  86.4226418  76.4204966  19.5249151  85.9393499  77.2205326  19.7313040
  86.5087357  76.4312911  18.5716595  79.6912377  78.2533346   7.4470970
  79.6683065  78.3521033   6.4952853  80.0013014  79.0998496   7.7688136
  82.3499755  80.3109501  11.5617585  83.3043009  80.2793443  11.4947516
  82.1512279  79.8500124  12.3767811  82.9399137  78.8810617  14.1288382
  83.7592026  79.3754695  14.1523220  83.2135945  77.9642585  14.1005950
  96.0480270  71.2967890   7.2070677  96.8240660  71.7864342   7.4795294
  95.3228404  71.7225944   7.6642547  78.1934052  73.2148750  14.8280579
  78.8392915  72.7047704  15.3167805  77.9851203  73.9517432  15.4024005
  90.7187444  80.2829598  20.3272720  91.5878603  80.4570250  19.9659355
  90.2394195  81.1024015  20.2048449  84.8873624  87.4026699  12.0062154
  85.7900871  87.4350309  12.3228649  84.6610994  86.4727150  12.0208489
  90.5289782  64.0731572   4.8350412  89.7622177  63.5190058   4.9807095
  90.9400487  64.1453440   5.6964564  82.5331543  70.3616368  18.9255594
  83.3963004  70.0053172  19.1358918  81.9596953  70.0230262  19.6130998
  95.0913043  83.7697084  19.9185565  94.6979989  83.2163283  20.5933209
  95.9079184  84.0807663  20.3092083  98.0081004  85.1854963  17.5105822
  98.7490718  85.7862116  17.4310284  98.2398927  84.4432601  16.9523864
  93.0361031  87.5598774  16.8590228  93.6633070  87.1775851  17.4727752
  92.1788950  87.3412976  17.2245921  96.2729088  86.8816680  18.5204148
  96.3217244  87.7578802  18.1381917  96.8151603  86.3394073  17.9475791
  97.3988902  88.3199745  20.7084089  97.2985629  89.2694102  20.6396180
  97.1810444  87.9917984  19.8360159  89.0327806  88.5440668  14.8280579
  89.6786670  88.0339622  15.3167805  88.8244957  89.2809350  15.4024005
  93.3725297  85.6908285  18.9255594  94.2356759  85.3345090  19.1358918
  92.7990708  85.3522180  19.6130998  67.7132918  29.3315440   4.1116859
  67.2696772  28.5451819   3.7937763  68.3750131  29.5194591   3.4460749
  69.8114156  29.6118240   2.1398260  69.7932631  30.4327121   1.6478529
  70.7334076  29.4872316   2.3648401  70.7229997  26.2514079   4.5348978
  70.5715503  26.0224630   3.6179062  70.7134676  27.2084680   4.5480323
  72.4322204  29.2833201   2.6125460  72.3734750  28.5992421   1.9456043
  72.8341722  30.0252191   2.1606086  70.9173877  28.9848118   5.1889270
  71.4613781  29.5978077   4.6944225  70.3360722  29.5427697   5.7056283
  74.2402672  28.4444172   4.5250591  73.4498216  28.4268311   3.9855091
  74.0036026  28.9832466   5.2799628  75.8618744  27.7133580   2.0825342
  75.5703552  28.0763561   2.9188803  75.2490875  27.0000589   1.9038674
  69.0399936  26.6307885   7.0518027  69.9091096  26.8048537   6.6904662
  68.5606688  27.4502302   6.9293756  80.6992412  38.3396511  -3.5436699
  81.3370822  38.2203258  -4.2473359  80.5813255  39.2877355  -3.4848747
  77.5082118  38.2923939  -3.6075174  77.1700630  38.1765004  -4.4954639
  78.3771886  37.8915104  -3.6274168  77.9901901  39.4458791   2.3511032
  77.9790542  39.0511589   1.4791535  78.1522541  38.7124864   2.9444803
  70.9133366  41.6410607  -4.7794063  71.7054658  41.3001432  -5.1947763
  71.1530016  41.7505582  -3.8591909  74.7109162  42.2295903   1.2990216
  74.4199028  43.1341534   1.1836882  75.3466147  42.2712430   2.0134285
  75.6365369  39.6072751  -2.1108425  76.2328941  39.3828774  -2.8251462
  75.6940341  38.8657497  -1.5082977  83.1767528  29.7144772  -1.1055904
  82.8450853  30.5840183  -1.3294689  82.5813141  29.3981056  -0.4261873
  79.6699047  41.9157318  -1.7059991  79.3699770  42.8182357  -1.8144184
  79.3250107  41.6489501  -0.8538838  83.0696191  34.4339858  -4.0262553
  82.1613068  34.3655267  -4.3203793  83.0183787  34.9111803  -3.1980728
  74.6519827  48.6801639  -8.7389023  74.5743857  49.6309464  -8.6600543
  74.0481471  48.3347511  -8.0814097  77.1437057  35.8529504   3.9172344
  76.3670391  36.4123424   3.9075208  77.7827620  36.3386287   4.4387214
  84.9357838  32.6356297  -2.2484680  84.2932218  32.9288830  -2.8944885
  84.4312766  32.5209217  -1.4431483  75.3983429  38.6614957   3.4790311
  76.1398114  39.2000001   3.2025134  74.6920415  39.2881246   3.6361863
  80.8738769  40.8044098   2.0762472  81.2822125  40.3626508   1.3317105
  80.1516030  40.2296725   2.3296665  77.2269839  35.7416705  -0.5503971
  78.0731034  36.1656118  -0.4069322  77.1668477  35.0850329   0.1434592
  81.1967583  41.3645289  -4.1685239  80.5676446  41.5291003  -4.8709171
  80.8093246  41.7786898  -3.3974275  85.0756815  42.2999726  -6.8140875
  84.3907854  42.6798628  -7.3643842  85.1600665  42.9095053  -6.0808927
  80.3769284  33.4021073   1.1077203  80.1330216  34.1563134   0.5711479
  80.6529215  33.7806421   1.9424450  82.3307747  39.9459685  -0.2145532
  82.5424642  40.5891445  -0.8911150  82.2837495  39.1122002  -0.6823601
  76.7495545  41.1019697  -6.9035154  77.2133891  41.3807400  -7.6930531
  76.4852343  40.2003141  -7.0862063  73.6419626  40.6491178  -3.9655390
  74.2120983  41.0778447  -4.6037906  74.2327738  40.3673763  -3.2671205
  74.1344793  35.8154606   4.2805621  73.5043454  36.4970886   4.5141018
  74.0280881  35.7037687   3.3358759  83.4453575  42.8231641  -2.0423174
  84.2671019  42.4211828  -2.3240493  83.4415978  42.7199875  -1.0907058
  77.2110178  42.3715684   0.1137536  77.2754611  42.8336091   0.9495708
  76.5021102  41.7413049   0.2419846  73.4125536  30.1175371   6.6430872
  73.0192481  29.5641570   7.3178516  74.2291676  30.4285950   7.0337389
  72.1882478  44.6724986  -7.3632805  72.3649106  45.5942951  -7.5511821
  72.9839312  44.3583405  -6.9338425  76.3293497  31.5333251   4.2351128
  77.0703210  32.1340404   4.1555591  76.5611419  30.7910888   3.6769171
  71.4734835  36.7189618   2.5129358  71.3588350  35.8174875   2.8136457
  70.6179352  36.9653315   2.1614175  78.5526672  44.6607358   4.1116859
  78.1090527  43.8743737   3.7937763  79.2143886  44.8486509   3.4460749
  73.3113794  46.1903160  -1.3622463  73.8621219  46.0620223  -2.1345469
  72.4725269  46.4898049  -1.7127570  80.6507910  44.9410158   2.1398260
  80.6326386  45.7619039   1.6478529  81.5727831  44.8164233   2.3648401
  77.1080965  42.4554288   2.9821768  77.6409301  41.6942576   2.7521076
  76.5795046  42.1627939   3.7245923  83.4526523  39.7789300  -4.3892373
  82.7950198  40.4688562  -4.3012245  84.2566923  40.1685732  -4.0458387
  82.2631982  38.1333673  -6.3388432  82.7763864  38.7663665  -5.8366722
  82.9133206  37.5334869  -6.7045072  78.7412813  35.6083129  -4.0930091
  77.8235374  35.8298076  -4.2508403  79.1572957  35.6829439  -4.9518384
  83.0293778  43.1139675  -8.2109289  82.5756105  42.2730585  -8.1544098
  82.3987745  43.7501073  -7.8734509  81.4726718  44.9516171  -7.2759471
  81.7649692  45.5121228  -7.9947105  81.9825338  45.2444732  -6.5206312
  76.4360343  45.7296522  -6.1866018  76.3936522  45.9557369  -7.1157486
  77.3523042  45.4959897  -6.0380216  79.8825977  36.1980590   0.7114612
  80.2375364  36.4252063   1.5709077  80.5298108  36.5298967   0.0891867
  85.6393093  41.3875553  -3.5724788  86.0729600  41.2950842  -2.7241734
  86.3524674  41.3633053  -4.2104772  74.5526144  42.6059551  -6.3904055
  75.3466742  42.1109872  -6.5921480  73.8417836  42.0777415  -6.7536349
  79.3720988  44.9877647  -2.0391687  79.4258010  45.5568583  -1.2713971
  78.5035769  45.1579532  -2.4037650  72.2519381  34.6895203  -0.5567236
  72.9242435  34.4812565  -1.2054587  71.4249168  34.4917289  -0.9962004
  86.5008643  41.4299253  -1.0391902  86.6944533  42.3345064  -0.7932628
  86.4009261  40.9706673  -0.2053317  78.1544953  31.3157144   1.4598425
  77.5072868  32.0147094   1.3662901  78.9245969  31.7493288   1.8274673
  81.5623751  41.5805996   4.5348978  81.4109258  41.3516548   3.6179062
  81.5528431  42.5376598   4.5480323  78.3309088  39.1537909  -0.4804755
  79.2601148  39.3049069  -0.6535788  77.9100118  39.2421930  -1.3356109
  77.1297420  43.1788573  -2.7106218  76.9908505  42.8107358  -1.8380280
  76.3412016  43.6936213  -2.8822260  77.7245572  48.2797670 -11.3680681
  77.8997327  47.8085713 -10.5535059  77.0378360  48.9063436 -11.1399421
  78.6802635  42.5570176  -5.3217380  78.3452467  42.5170946  -4.4259730
  78.1806580  41.8914892  -5.7946970  72.6546879  37.9637806   0.2035201
  72.5166677  37.2318045   0.8046740  73.5651802  37.8746706  -0.0780611
  75.2829179  37.6757765  -0.3081119  75.9928798  37.0350958  -0.3494501
  75.2398488  37.9270660   0.6145062  83.2715958  44.6125119   2.6125460
  83.2128504  43.9284339   1.9456043  83.6735476  45.3544109   2.1606086
  73.9958113  34.6622983   1.5114520  73.4595470  34.2113722   2.1636117
  73.4074822  34.7968892   0.7684985  72.2906657  51.4287033  -4.5940821
  72.5303255  52.0605557  -3.9161803  71.4475853  51.0775073  -4.3075462
  83.2733365  42.5764703   0.8439440  82.3860144  42.2390625   0.9665839
  83.8431916  41.8447734   1.0808205  76.8034519  47.2366155  -2.1899317
  76.7304690  48.0421127  -1.6780013  76.3611912  47.4358121  -3.0151296
  76.5924298  46.4737925  -8.6796496  75.8091820  47.0159605  -8.5858271
  77.2917043  46.9911905  -8.2802254  79.2633202  47.1352989  -0.0341158
  79.9761174  47.7700454  -0.1065257  78.7723231  47.2316855  -0.8501157
  80.9850729  41.0404242  -8.4623867  80.0507008  41.1605704  -8.6319162
  81.1627398  40.1376709  -8.7263857  74.3145116  44.8847433   0.7864412
  75.0154575  45.5183916   0.9393807  73.8440231  45.2262164   0.0260052
  82.1146402  37.4392040  -1.3883037  81.4617852  37.6867947  -2.0430585
  82.4926782  36.6256178  -1.7220560  79.0753576  47.4751733  -7.2854867
  79.2575970  46.6573389  -6.8227115  79.8986562  47.6919425  -7.7229977
  79.4095741  46.4019918 -10.0239819  79.9383508  45.8912373 -10.6369656
  79.6723961  46.0862449  -9.1594285  78.1633975  38.1811851   5.0983000
  77.4874612  38.0805980   5.7685375  78.9861609  38.0251065   5.5618997
  69.9112834  44.4183788  -2.2804485  70.4966271  43.6727476  -2.1476581
  69.7137672  44.7287744  -1.3967821  72.7651489  47.4535035  -7.2642043
  72.0961864  47.9381163  -7.7478003  72.6264359  47.7004255  -6.3498664
  76.9056758  49.4878779  -0.6659384  77.4575066  49.6510400   0.0989701
  77.2462951  50.0783216  -1.3379359  71.3573523  33.9077061   3.5835535
  71.9845562  33.5254138   4.1973059  70.5001442  33.6891263   3.9491227
  81.7567632  44.3140036   5.1889270  82.3007536  44.9269994   4.6944225
  81.1754477  44.8719614   5.7056283  80.0425145  47.4360754  -3.6795702
  79.9176284  46.6350494  -4.1884757  80.7004236  47.9306947  -4.1681732
  82.1060053  45.2369774  -2.0516152  81.1590389  45.1175125  -2.1237825
  82.4542826  44.3492272  -1.9689891  74.4659627  31.1263913   1.7722090
  74.9894028  31.3726210   2.5348399  74.2471960  31.9583948   1.3525227
  79.1106487  45.0322490  -5.8511800  78.9631449  44.1039198  -5.6704230
  79.9359980  45.0542581  -6.3354724  82.7140608  45.8551049  -4.7646927
  83.6387156  45.6493910  -4.9022476  82.5455912  45.6067450  -3.8557585
  75.6712172  32.0677608  -0.5428240  75.3308992  31.2685421  -0.1407560
  74.9651178  32.3679319  -1.1151406  77.5589736  33.2685929  -2.1874921
  77.3007514  34.1903000  -2.1890590  77.0274776  32.8716364  -1.4974457
  82.5035925  46.3736717  -9.4084836  82.6772802  45.8083139 -10.1610983
  82.9964816  47.1737611  -9.5905346  68.3212884  38.3851386  -1.3421277
  67.7766353  39.1611194  -1.2101002  69.1992234  38.7322190  -1.5002155
  69.1078906  37.5121282   1.5508880  68.3660642  37.6603917   2.1373511
  68.7871651  37.7729547   0.6875630  77.0522569  47.0537260   1.3489270
  77.3609695  46.8086407   2.2211970  77.8498051  47.2583899   0.8608140
  77.0743181  49.2075170  -6.4205353  76.6348171  48.7151548  -5.7272497
  77.8251298  48.6648137  -6.6613278  69.5535520  45.3986711  -6.4180725
  70.3793540  45.0990482  -6.7982082  69.2029572  44.6294333  -5.9690937
  74.5217053  44.7513179  -4.3483052  73.8997062  44.0883884  -4.6480824
  75.1921920  44.7774311  -5.0309404  74.5941581  33.2294967   5.2449454
  74.6429736  34.1057090   4.8627224  75.1364095  32.6872360   4.6721098
  85.0796426  43.7736090   4.5250591  84.2891970  43.7560229   3.9855091
  84.8429781  44.3124384   5.2799628  85.1994301  40.6228556   1.8383320
  85.2492306  40.4578564   2.7798843  85.0908225  39.7555816   1.4481201
  82.4898064  36.6059485   3.1542627  83.3907926  36.4665949   2.8626625
  82.5646038  36.7713939   4.0940804  76.8240869  33.9826339   1.9995813
  75.9544178  34.2759905   1.7278402  77.0600349  34.5666784   2.7203077
  86.7012498  43.0425498   2.0825342  86.4097306  43.4055479   2.9188803
  86.0884629  42.3292506   1.9038674  84.9499686  38.1658113   0.5505400
  85.4253808  38.3585759  -0.2575749  84.0265252  38.2217298   0.3048783
  79.5279903  30.2005956  -0.4838767  80.0461847  30.9366983  -0.8092278
  79.1735036  30.5069949   0.3507993  83.6501355  35.0423873  -1.2166295
  84.6018778  35.1421970  -1.1954071  83.4804806  34.2502141  -0.7068210
  81.6715735  32.1279456  -1.0306894  81.0765667  32.4084469  -1.7260405
  81.3865432  32.6173357  -0.2590153  86.1289433  38.2629992  -2.1023995
  86.0965753  37.3245993  -1.9164311  86.7390057  38.3414029  -2.8358170
  77.8511457  41.1843792   5.4003866  78.7714466  41.3622391   5.5943912
  77.8161040  40.2399837   5.2483565  70.8473529  39.0944826  -1.9573353
  71.0659539  40.0261934  -1.9385319  71.2599303  38.7352801  -1.1718549
  75.7201394  34.6678032   7.4329396  75.6198121  35.6172389   7.3641487
  75.5022937  34.3396271   6.5605466  75.5832665  38.0975171   6.2494458
  75.0999746  38.8975531   6.4558347  75.6693604  38.1083116   5.2961902
  71.5106002  41.9879705  -1.7137109  72.4649256  41.9563648  -1.7807177
  71.3118526  41.5270329  -0.8986883  72.1005384  40.5580822   0.8533689
  72.9198273  41.0524900   0.8768526  72.3742192  39.6412790   0.8251257
  69.8656231  47.5299325  -4.6966911  69.7310699  46.7699726  -5.2628913
  69.4488293  48.2540225  -5.1638122  73.0225357  48.4268642  -4.4848468
  72.9057741  49.3714074  -4.5869778  72.2017803  48.1242204  -4.0962669
  67.3540298  34.8918955   1.5525886  67.9999162  34.3817909   2.0413111
  67.1457449  35.6287637   2.1269311  79.8793691  41.9599803   7.0518027
  80.7484850  42.1340455   6.6904662  79.4000442  42.7794220   6.9293756
  74.0479871  49.0796904  -1.2692540  74.9507118  49.1120514  -0.9526045
  73.8217241  48.1497355  -1.2546204  75.8033473  47.8327890  -4.6082461
  74.8529104  47.8329752  -4.7218089  76.1065959  47.0860625  -5.1246426
  71.6937789  32.0386572   5.6500900  72.5569251  31.6823377   5.8604225
  71.1203200  31.7000467   6.3376305  91.5386166  53.6688429  -3.5436699
  92.1764576  53.5495176  -4.2473359  91.4207009  54.6169273  -3.4848747
  88.3475873  53.6215857  -3.6075174  88.0094384  53.5056922  -4.4954639
  89.2165641  53.2207022  -3.6274168  88.8295656  54.7750709   2.3511032
  88.8184296  54.3803507   1.4791535  88.9916295  54.0416781   2.9444803
  81.7527120  56.9702525  -4.7794063  82.5448412  56.6293350  -5.1947763
  81.9923770  57.0797500  -3.8591909  85.5502917  57.5587820   1.2990216
  85.2592783  58.4633451   1.1836882  86.1859901  57.6004348   2.0134285
  86.4759124  54.9364669  -2.1108425  87.0722696  54.7120691  -2.8251462
  86.5334095  54.1949414  -1.5082977  91.0927435  51.3939883  -6.4683491
  91.8790524  50.9759306  -6.8193074  91.3566139  52.2985975  -6.3001842
  94.0161282  45.0436690  -1.1055904  93.6844607  45.9132101  -1.3294689
  93.4206896  44.7272974  -0.4261873  90.5092802  57.2449236  -1.7059991
  90.2093525  58.1474275  -1.8144184  90.1643861  56.9781419  -0.8538838
  83.9605283  53.6963033  -5.6723286  83.0355780  53.5639247  -5.4645595
  84.2089696  54.4757252  -5.1753344  93.9089946  49.7631776  -4.0262553
  93.0006823  49.6947185  -4.3203793  93.8577541  50.2403721  -3.1980728
  81.3214094  53.3396306  -4.8379497  81.4506475  53.5930785  -3.9240086
  80.6411546  53.9324014  -5.1574842  87.9830811  51.1821422   3.9172344
  87.2064145  51.7415342   3.9075208  88.6221374  51.6678205   4.4387214
  95.7751592  47.9648215  -2.2484680  95.1325972  48.2580748  -2.8944885
  95.2706521  47.8501135  -1.4431483  86.2377184  53.9906875   3.4790311
  86.9791868  54.5291919   3.2025134  85.5314169  54.6173164   3.6361863
  91.7132523  56.1336016   2.0762472  92.1215879  55.6918426   1.3317105
  90.9909785  55.5588643   2.3296665  88.0663593  51.0708622  -0.5503971
  88.9124789  51.4948036  -0.4069322  88.0062231  50.4142247   0.1434592
  91.2163039  48.7312991   1.1077203  90.9723971  49.4855051   0.5711479
  91.4922969  49.1098338   1.9424450  93.1701501  55.2751603  -0.2145532
  93.3818397  55.9183363  -0.8911150  93.1231250  54.4413920  -0.6823601
  90.7727730  47.8869424  -3.3108959  89.9112209  48.1850677  -3.0192222
  90.7990165  48.1039823  -4.2427927  84.4813381  55.9783096  -3.9655390
  85.0514738  56.4070364  -4.6037906  85.0721493  55.6965681  -3.2671205
  84.9738547  51.1446523   4.2805621  84.3437208  51.8262804   4.5141018
  84.8674635  51.0329605   3.3358759  80.2683520  50.8118319  -4.7928455
  79.4782574  51.0675848  -5.2688344  80.7594767  51.6266657  -4.6876414
  82.2198265  51.1762899  -7.8344978  81.4229429  51.2881593  -7.3161483
  81.9923857  51.5149551  -8.7004088  88.0503933  57.7007602   0.1137536
  88.1148365  58.1628009   0.9495708  87.3414857  57.0704967   0.2419846
  78.5521223  51.0648810  -2.3613464  78.8029261  51.9495820  -2.0955888
  79.0880771  50.8853411  -3.1338372  84.2519290  45.4467289   6.6430872
  83.8586236  44.8933488   7.3178516  85.0685430  45.7577868   7.0337389
  87.1687251  46.8625168   4.2351128  87.9096965  47.4632321   4.1555591
  87.4005174  46.1202806   3.6769171  82.3128589  52.0481535   2.5129358
  82.1982104  51.1466793   2.8136457  81.4573107  52.2945232   2.1614175
  89.3920427  59.9899276   4.1116859  88.9484281  59.2035654   3.7937763
  90.0537640  60.1778426   3.4460749  84.1507548  61.5195077  -1.3622463
  84.7014973  61.3912141  -2.1345469  83.3119024  61.8189966  -1.7127570
  91.4901665  60.2702076   2.1398260  91.4720140  61.0910957   1.6478529
  92.4121585  60.1456151   2.3648401  87.9474719  57.7846205   2.9821768
  88.4803056  57.0234493   2.7521076  87.4188800  57.4919857   3.7245923
  91.1144414  42.8906271  -1.4884590  90.7708683  43.7807913  -1.5645479
  91.4823377  42.7007929  -2.3515005  79.1830265  55.2139802  -8.6695988
  80.0205487  55.6236810  -8.8862280  79.3608532  54.2739244  -8.6995794
  90.1940954  45.2610926  -3.5235357  89.6905750  45.2241061  -4.3367551
  90.4871561  46.1703669  -3.4638700  86.4383840  45.3449656  -4.5169175
  87.3036837  45.1492465  -4.8763285  86.5061349  45.1160008  -3.5899818
  84.0446159  47.5751864  -7.1452808  84.6189911  47.3527045  -7.8779615
  84.6317142  47.6440558  -6.3924207  89.5806568  50.9375046  -4.0930091
  88.6629129  51.1589993  -4.2508403  89.9966711  51.0121357  -4.9518384
  79.2056436  52.5530517  -7.9985254  79.0080836  51.9599878  -8.7234188
  78.6503100  52.2482727  -7.2809316  87.1853159  52.4453623  -5.8790661
  87.2401769  51.4927460  -5.9548185  86.3744362  52.6013062  -5.3949363
  85.1245519  51.0630683  -8.1200282  84.3113385  51.3624854  -7.7135090
  85.6204514  50.6686372  -7.4025800  90.7219731  51.5272508   0.7114612
  91.0769119  51.7543981   1.5709077  91.3691862  51.8590884   0.0891867
  84.6159594  48.6349039  -2.5039047  85.2558973  48.4937798  -3.2016084
  83.7837125  48.3483552  -2.8800445  90.2114743  60.3169565  -2.0391687
  90.2651765  60.8860501  -1.2713971  89.3429524  60.4871450  -2.4037650
  81.6188211  48.6049364  -7.7266061  81.8795028  49.5194697  -7.8356900
  82.4405383  48.1373806  -7.5769448  83.0913136  50.0187121  -0.5567236
  83.7636189  49.8104483  -1.2054587  82.2642922  49.8209207  -0.9962004
  88.9938708  46.6449062   1.4598425  88.3466623  47.3439011   1.3662901
  89.7639723  47.0785206   1.8274673  92.4017506  56.9097914   4.5348978
  92.2503012  56.6808466   3.6179062  92.3922185  57.8668515   4.5480323
  89.1702842  54.4829827  -0.4804755  90.0994902  54.6340986  -0.6535788
  88.7493872  54.5713847  -1.3356109  87.9691174  58.5080491  -2.7106218
  87.8302260  58.1399275  -1.8380280  87.1805770  59.0228130  -2.8822260
  83.4940633  53.2929724   0.2035201  83.3560431  52.5609963   0.8046740
  84.4045557  53.2038624  -0.0780611  86.1222934  53.0049683  -0.3081119
  86.8322552  52.3642875  -0.3494501  86.0792242  53.2562578   0.6145062
  94.1109713  59.9417036   2.6125460  94.0522259  59.2576257   1.9456043
  94.5129231  60.6836026   2.1606086  84.8351868  49.9914901   1.5114520
  84.2989225  49.5405639   2.1636117  84.2468576  50.1260810   0.7684985
  94.1127120  57.9056620   0.8439440  93.2253899  57.5682542   0.9665839
  94.6825671  57.1739652   1.0808205  75.7656267  54.2380712  -5.8317509
  76.4527307  53.9242442  -6.4196494  75.6104396  55.1422077  -6.1050258
  80.5690989  49.1270909  -1.4032485  80.4849178  48.5196578  -2.1382075
  79.7473695  49.6179927  -1.4022989  90.1026957  62.4644907  -0.0341158
  90.8154929  63.0992372  -0.1065257  89.6116985  62.5608773  -0.8501157
  87.3249672  49.7541855  -6.3090606  86.9547459  49.2012896  -5.6209700
  87.8208764  49.1499989  -6.8615606  85.1538870  60.2139350   0.7864412
  85.8548330  60.8475833   0.9393807  84.6833985  60.5554082   0.0260052
  92.9540156  52.7683958  -1.3883037  92.3011606  53.0159865  -2.0430585
  93.3320536  51.9548096  -1.7220560  89.0027729  53.5103769   5.0983000
  88.3268366  53.4097898   5.7685375  89.8255363  53.3542982   5.5618997
  80.7506588  59.7475705  -2.2804485  81.3360025  59.0019393  -2.1476581
  80.5531427  60.0579662  -1.3967821  75.3424243  52.3181306  -3.5600042
  75.3808343  51.7844896  -2.7662924  74.8364536  51.7916511  -4.1789065
  82.7215005  47.1645846  -0.0637500  82.7856332  48.0260677  -0.4760102
  82.6582126  46.5519848  -0.7965141  82.1967278  49.2368979   3.5835535
  82.8239317  48.8546056   4.1973059  81.3395197  49.0183180   3.9491227
  92.5961386  59.6431954   5.1889270  93.1401290  60.2561912   4.6944225
  92.0148231  60.2011532   5.7056283  78.9732821  51.0445408 -10.4846110
  79.2686262  50.1356086 -10.5379057  78.0720856  51.0233147 -10.8065108
  82.5027068  49.1201404  -4.5018562  81.7813653  49.7337372  -4.6411089
  83.2920323  49.6559169  -4.5801916  85.3053381  46.4555831   1.7722090
  85.8287783  46.7018127   2.5348399  85.0865714  47.2875866   1.3525227
  80.7020662  48.7259505 -10.3606785  80.3733368  47.8456884 -10.5431679
  81.0560033  48.6707174  -9.4730396  83.8162485  49.0132475  -9.9931308
  84.1558558  49.5418396 -10.7152699  84.2634606  49.3512881  -9.2172741
  86.5105926  47.3969526  -0.5428240  86.1702747  46.5977339  -0.1407560
  85.8044932  47.6971237  -1.1151406  87.1622398  44.4818838  -2.0900917
  87.9848467  44.0079316  -2.2122026  87.4060462  45.2609322  -1.5902230
  84.6860977  51.1737959  -4.2808938  84.5405557  51.4878262  -3.3884656
  84.2086180  51.7922859  -4.8338039  86.5457360  48.1640507  -4.2328048
  86.5318928  47.2681600  -4.5695750  87.2629788  48.1711171  -3.5989762
  88.3983490  48.5977847  -2.1874921  88.1401268  49.5194918  -2.1890590
  87.8668531  48.2008282  -1.4974457  79.1606639  53.7143303  -1.3421277
  78.6160107  54.4903111  -1.2101002  80.0385989  54.0614108  -1.5002155
  85.9494256  47.0454887  -8.9640478  86.0710167  46.1171533  -8.7649591
  85.6596298  47.0593573  -9.8762163  79.9472661  52.8413200   1.5508880
  79.2054397  52.9895835   2.1373511  79.6265405  53.1021465   0.6875630
  87.8916323  62.3829178   1.3489270  88.2003450  62.1378325   2.2211970
  88.6891805  62.5875816   0.8608140  78.5937880  58.6464955  -5.4591792
  77.7569788  58.2187129  -5.6407790  78.5661525  58.8397398  -4.5221000
  85.4335335  48.5586885   5.2449454  85.4823491  49.4349007   4.8627224
  85.9757849  48.0164278   4.6721098  95.9190181  59.1028008   4.5250591
  95.1285724  59.0852147   3.9855091  95.6823535  59.6416301   5.2799628
  96.0388056  55.9520474   1.8383320  96.0886061  55.7870482   2.7798843
  95.9301979  55.0847733   1.4481201  93.3291818  51.9351402   3.1542627
  94.2301681  51.7957867   2.8626625  93.4039793  52.1005857   4.0940804
  87.6634624  49.3118257   1.9995813  86.7937933  49.6051823   1.7278402
  87.8994104  49.8958702   2.7203077  97.5406253  58.3717416   2.0825342
  97.2491061  58.7347396   2.9188803  96.9278384  57.6584424   1.9038674
  95.7893441  53.4950030   0.5505400  96.2647563  53.6877677  -0.2575749
  94.8659006  53.5509216   0.3048783  90.3673657  45.5297874  -0.4838767
  90.8855601  46.2658901  -0.8092278  90.0128790  45.8361867   0.3507993
  94.4895110  50.3715790  -1.2166295  95.4412533  50.4713888  -1.1954071
  94.3198560  49.5794059  -0.7068210  92.5109489  47.4571374  -1.0306894
  91.9159421  47.7376386  -1.7260405  92.2259186  47.9465275  -0.2590153
  96.9683188  53.5921910  -2.1023995  96.9359508  52.6537911  -1.9164311
  97.5783811  53.6705947  -2.8358170  88.6905211  56.5135709   5.4003866
  89.6108221  56.6914308   5.5943912  88.6554794  55.5691755   5.2483565
  77.9087376  51.7074303  -5.6742860  77.5890160  50.8539611  -5.9668486
  77.3620804  51.9222881  -4.9184892  81.6867284  54.4236744  -1.9573353
  81.9053293  55.3553852  -1.9385319  82.0993057  54.0644718  -1.1718549
  86.5595149  49.9969950   7.4329396  86.4591876  50.9464307   7.3641487
  86.3416691  49.6688189   6.5605466  77.7775636  55.3277214  -3.7049738
  77.0839108  54.9131167  -4.2179784  78.5248627  55.3697751  -4.3016319
  86.4226419  53.4267088   6.2494458  85.9393501  54.2267449   6.4558347
  86.5087358  53.4375033   5.2961902  79.6912379  55.2595468  -5.8283723
  79.6683067  55.3583155  -6.7801840  80.0013015  56.1060619  -5.5066557
  82.3499757  57.3171623  -1.7137109  83.3043010  57.2855565  -1.7807177
  82.1512280  56.8562247  -0.8986883  82.9399139  55.8872739   0.8533689
  83.7592028  56.3816818   0.8768526  83.2135946  54.9704707   0.8251257
  78.1934053  50.2210873   1.5525886  78.8392916  49.7109827   2.0413111
  77.9851204  50.9579555   2.1269311  90.7187445  57.2891721   7.0518027
  91.5878605  57.4632373   6.6904662  90.2394197  58.1086137   6.9293756
  84.8873625  64.4088822  -1.2692540  85.7900872  64.4412432  -0.9526045
  84.6610995  63.4789273  -1.2546204  82.5331544  47.3678490   5.6500900
  83.3963005  47.0115295   5.8604225  81.9596955  47.0292385   6.3376305
  95.0913045  60.7759207   6.6430872  94.6979990  60.2225405   7.3178516
  95.9079185  61.0869785   7.0337389  98.0081006  62.1917086   4.2351128
  98.7490719  62.7924239   4.1555591  98.2398928  61.4494724   3.6769171
  93.0361032  64.5660896   3.5835535  93.6633071  64.1837974   4.1973059
  92.1788951  64.3475098   3.9491227  96.2729090  63.8878802   5.2449454
  96.3217245  64.7640925   4.8627224  96.8151604  63.3456195   4.6721098
  97.3988903  65.3261867   7.4329396  97.2985630  66.2756224   7.3641487
  97.1810445  64.9980106   6.5605466  89.0327807  65.5502791   1.5525886
  89.6786671  65.0401745   2.0413111  88.8244958  66.2871472   2.1269311
  93.3725298  62.6970408   5.6500900  94.2356760  62.3407213   5.8604225
  92.7990709  62.3584303   6.3376305   4.8209525 100.4838065  73.9589954
   4.0673233  99.9145463  73.8033959   4.9557066 100.4500730  74.9060589
   1.6425272 100.4540816  71.8633621   2.0856418  99.7048141  71.4652745
   0.7651783 100.4450952  71.4807353   1.1858137 101.9246054  74.2556069
   2.0205028 102.3635858  74.4193629   1.3217266 101.4484707  73.4364315
   5.2315940 100.6413675  76.6910199   5.9619328 100.3798963  77.2517902
   4.6222885  99.9042397  76.7312267   3.3131237  98.7821538  77.2884650
   2.5864400  98.6477503  76.6801141   2.8978524  99.0898366  78.0941368
   0.9309032  95.0033390  74.6418082   1.5253522  94.7629126  73.9311390
   1.0035615  94.2840521  75.2691618   3.2380104  98.3099591  73.4161503
   2.6779662  98.3792780  74.1893065   2.6323608  98.1340576  72.6960999
   4.3994371 104.2073947  78.1643567   4.0558640 105.0975589  78.0882678
   4.7673333 104.0175605  77.3013152   6.1982036 103.4667506  73.2661305
   6.5040913 102.6064870  72.9787220   6.9234641 104.0585127  73.0660299
   6.4683654 105.8961742  75.7645226   5.5546734 106.1265969  75.9327433
   6.8976756 105.9800186  76.6159258   3.9036208 103.2665832  74.6890287
   4.1837962 102.5989022  75.3150714   4.6886815 103.4594928  74.1764951
   8.0638360 105.4441645  73.5558258   7.8663181 105.1356733  74.4401590
   8.6738065 106.1703284  73.6856188   3.8212006 105.3250552  71.3054789
   4.3743045 105.7446005  71.9644812   4.0582093 104.3986300  71.3477745
   3.8139739 102.3961370  71.2123876   3.0472135 101.8419857  71.3580559
   4.2250444 102.4683239  72.0738028   4.8209526  77.4900188  60.6835261
   4.0673234  76.9207586  60.5279265   4.9557067  77.4562852  61.6305896
   1.6425274  77.4602938  58.5878928   2.0856420  76.7110263  58.1898051
   0.7651784  77.4513074  58.2052660   1.1858138  78.9308176  60.9801376
   2.0205030  79.3697980  61.1438936   1.3217267  78.4546830  60.1609621
   5.2315941  77.6475798  63.4155505   5.9619329  77.3861086  63.9763209
   4.6222886  76.9104520  63.4557573   3.3131238  75.7883660  64.0129957
   2.5864402  75.6539625  63.4046448   2.8978525  76.0960489  64.8186675
   0.9309033  72.0095513  61.3663388   1.5253524  71.7691249  60.6556696
   1.0035617  71.2902643  61.9936924   3.2380106  75.3161714  60.1406809
   2.6779664  75.3854903  60.9138371   2.6323609  75.1402698  59.4206306
   4.8236124  91.9918227  62.8336765   5.4614534  91.8724975  62.1300105
   4.7056967  92.9399071  62.8924717   1.6325830  91.9445656  62.7698290
   1.2944342  91.8286720  61.8818825   2.5015599  91.5436821  62.7499296
   2.1145613  93.0980507  68.7284495   2.1034254  92.7033306  67.8564999
   2.2766253  92.3646580  69.3218267   3.0712205  97.4652100  54.0709646
   2.4200185  98.0506180  53.6843659   3.8656568  97.9958295  54.1304683
   4.3777393  89.7169681  59.9089973   5.1640482  89.2989104  59.5580390
   4.6416097  90.6215773  60.0771621   4.5487470  95.1542532  54.6078630
   3.9133303  95.2277158  55.3199535   4.2184876  95.7436130  53.9297709
   9.7785820  89.6544915  60.8122952  10.5110992  89.0844131  61.0460781
   9.0225175  89.2666515  61.2529457   1.3961939  92.0772156  58.0086294
   1.0320147  91.5502777  58.7199216   2.2529055  91.6870625  57.8352779
   7.3011240  83.3666489  65.2717560   6.9694565  84.2361900  65.0478775
   6.7056853  83.0502773  65.9511591   1.0367426  87.1062056  53.0047643
   1.2041829  87.9742292  53.3718114   0.8464595  87.2689337  52.0808932
   3.7942760  95.5679035  64.6713473   3.4943483  96.4704073  64.5629280
   3.4493819  95.3011218  65.5234626   7.1939903  88.0861575  62.3510910
   6.2856781  88.0176983  62.0569671   7.1427499  88.5633520  63.1792736
   1.2680769  89.5051220  70.2945808   0.4914103  90.0645141  70.2848672
   1.9071332  89.9908003  70.8160678   9.0601550  86.2878013  64.1288784
   8.4175930  86.5810546  63.4828579   8.5556478  86.1730934  64.9341981
   6.7141713  90.0341186  54.8174643   7.6259570  90.2668573  54.6422341
   6.2051361  90.6178231  54.2549722   4.9982481  94.4565814  68.4535936
   5.4065837  94.0148225  67.7090568   4.2759743  93.8818442  68.7070129
   1.3513551  89.3938421  65.8269493   2.1974746  89.8177835  65.9704142
   1.2912189  88.7372045  66.5208056   5.3211296  95.0167005  62.2088225
   4.6920158  95.1812719  61.5064293   4.9336958  95.4308614  62.9799189
   9.2000528  95.9521443  59.5632589   8.5151566  96.3320344  59.0129622
   9.2844377  96.5616769  60.2964536   4.5012996  87.0542789  67.4850667
   4.2573928  87.8084850  66.9484942   4.7772927  87.4328137  68.3197914
   6.4551459  93.5981402  66.1627932   6.6668355  94.2413162  65.4862313
   6.4081208  92.7643718  65.6949862   4.0577688  86.2099222  63.0664504
   3.1962167  86.5080476  63.3581242   4.0840123  86.4269621  62.1345537
   0.8739258  94.7541413  59.4738310   1.3377603  95.0329116  58.6842932
   0.6096056  93.8524857  59.2911401   7.5697287  96.4753357  64.3350290
   8.3914731  96.0733544  64.0532971   7.5659690  96.3721591  65.2866405
   1.3353891  96.0237400  66.4911000   1.3998323  96.4857808  67.3269172
   0.6264815  95.3934765  66.6193310  15.6603280  92.8192106  60.6835261
  14.9066989  92.2499504  60.5279265  15.7950821  92.7854770  61.6305896
   1.0501908  97.6905508  56.3589980   0.9147583  98.5357044  56.7874828
   1.5911721  97.8924786  55.5955914   2.6770385  98.3129074  70.4890322
   2.2334239  97.5265453  70.1711227   3.3387598  98.5008225  69.8234213
   4.7751623  98.5931874  68.5171724   4.7570098  99.4140755  68.0251993
   5.6971543  98.4685950  68.7421865   1.2324677  96.1076004  69.3595232
   1.7653014  95.3464292  69.1294540   0.7038758  95.8149656  70.1019387
   4.3994372  81.2136070  64.8888874   4.0558641  82.1037711  64.8127984
   4.7673334  81.0237727  64.0258459   4.3644655  91.2044681  53.3961309
   3.8491278  91.9749286  53.6349696   4.0921963  90.5309817  54.0194370
   1.9491766  86.0494382  58.4546547   1.0933362  85.6601232  58.2752186
   2.3618717  86.1286342  57.5946333   3.4790912  83.5840725  62.8538107
   2.9755708  83.5470860  62.0405912   3.7721519  84.4933468  62.9134764
   9.3378929  93.9577036  55.3314482   8.5608372  93.6188195  54.8869644
  10.0170410  93.9629659  54.6569447   4.1530958  89.0771773  55.2221090
   3.8481093  89.3917922  56.0731233   5.1061400  89.1553193  55.2648423
   2.5977390  95.2361996  56.8714044   2.0698751  94.5014756  56.5587282
   2.0964892  96.0136673  56.6254012   7.5770236  93.4311017  61.9881090
   6.9193910  94.1210278  62.0761219   8.3810635  93.8207449  62.3315077
   6.3875694  91.7855389  60.0385032   6.9007576  92.4185381  60.5406742
   7.0376918  91.1856585  59.6728392   3.6498069 101.7639714  52.7945703
   2.9759767 102.0671411  53.4030661   4.0363891 102.5668794  52.4451160
   2.8656525  89.2604845  62.2843373   1.9479087  89.4819792  62.1265061
   3.2816669  89.3351156  61.4255080   3.6491573  90.6596261  57.4146053
   4.3963392  91.1717658  57.1053175   3.9183163  90.3380313  58.2750446
   1.9218223  93.1554801  54.3973007   1.0129442  92.8713834  54.4945477
   1.9513307  93.5753880  53.5376314   7.1537491  96.7661391  58.1664175
   6.6999818  95.9252301  58.2229365   6.5231457  97.4022789  58.5038955
   6.0970410  87.6953377  59.3964842   5.3593167  87.1830763  59.7275085
   6.3497184  87.2553759  58.5848119   5.5970430  98.6037888  59.1013993
   5.8893404  99.1642945  58.3826359   6.1069050  98.8966449  59.8567152
   6.1982038  80.4729629  59.9906612   6.5040914  79.6126992  59.7032527
   6.9234642  81.0647249  59.7905605   1.6194311  94.6963545  51.7361086
   1.1813741  93.9799404  51.2766723   2.3604752  94.9239660  51.1746177
   0.5604055  99.3818239  60.1907446   0.5180234  99.6079085  59.2615978
   1.4766754  99.1481613  60.3393247   4.0069689  89.8502306  67.0888075
   4.3619077  90.0773779  67.9482541   4.6541820  90.1820683  66.4665331
   9.7367426  92.9720742  57.7937404   9.5985324  93.1622338  56.8658594
   9.3803645  93.7340125  58.2505455   9.7636805  95.0397269  62.8048676
  10.1973312  94.9472558  63.6531730  10.4768386  95.0154770  62.1668692
   3.4964700  98.6399363  64.3381776   3.5501723  99.2090300  65.1059492
   2.6279482  98.8101248  63.9735814  10.6252355  95.0820970  65.3381561
  10.8188245  95.9866780  65.5840836  10.5252973  94.6228389  66.1720146
   2.2788666  84.9678860  67.8371889   1.6316581  85.6668810  67.7436365
   3.0489681  85.4015004  68.2048137   5.6867464  95.2327713  70.9122442
   5.5352970  95.0038264  69.9952526   5.6772143  96.1898314  70.9253787
   2.4552800  92.8059625  65.8968708   3.3844860  92.9570785  65.7237676
   2.0343830  92.8943646  65.0417355   1.8489284 101.9319386  55.0092782
   2.0241040 101.4607429  55.8238405   1.1622072 102.5585152  55.2374043
   2.8046347  96.2091892  61.0556084   2.4696180  96.1692662  61.9513734
   2.3050293  95.5436608  60.5826494   5.7405539  93.5547927  51.3293143
   5.1234709  92.8294755  51.2326196   5.2722027  94.3157287  50.9860218
   7.3959670  98.2646835  68.9898924   7.3372216  97.5806055  68.3229507
   7.7979189  99.0065825  68.5379550   7.3977078  96.2286419  67.2212903
   6.5103856  95.8912341  67.3439302   7.9675629  95.4969450  67.4581669
   0.9278231 100.8887871  64.1874147   0.8548402 101.6942843  64.6993451
   0.4855624 101.0879837  63.3622168   4.0264661  85.9354271  60.3411174
   4.5233360  85.1824233  60.0212244   3.2551642  85.9718588  59.7754383
  11.8794418  91.6394636  61.9829465  11.8684294  92.5219352  61.6123398
  11.0111798  91.2866187  61.7884002   3.3876914 100.7874705  66.3432305
   4.1004887 101.4222170  66.2708207   2.8966943 100.8838571  65.5272307
   5.1094441  94.6925958  57.9149597   4.1750720  94.8127421  57.7454301
   5.2871110  93.7898425  57.6509607   8.4966993  90.5343277  58.4499631
   8.9627445  91.3671269  58.3759934   8.9474493  90.0688259  59.1544890
   6.5643224  96.8787099  55.4485783   6.8403068  96.7643693  56.3579657
   5.6947723  96.4804584  55.4097956   6.4683655  82.9023864  62.4890532
   5.5546735  83.1328091  62.6572739   6.8976757  82.9862308  63.3404565
   6.2390114  91.0913756  64.9890426   5.5861564  91.3389664  64.3342879
   6.6170494  90.2777895  64.6552904   3.1997288 101.1273450  59.0918597
   3.3819682 100.3095105  59.5546349   4.0230274 101.3441142  58.6543487
   3.5339453 100.0541635  56.3533645   4.0627220  99.5434089  55.7403807
   3.7967673  99.7384165  57.2179178   2.2877687  91.8333567  71.4756464
   1.6118324  91.7327697  72.1458839   3.1105321  91.6772781  71.9392461
   1.0300470 103.1400495  65.7114080   1.5818778 103.3032116  66.4763165
   1.3706663 103.7304933  65.0394104   5.8811344  97.9661752  71.5662734
   6.4251248  98.5791711  71.0717689   5.2998189  98.5241331  72.0829747
   4.1668857 101.0882470  62.6977762   4.0419997 100.2872210  62.1888707
   4.8247948 101.5828664  62.2091732   6.2303766  98.8891490  64.3257312
   5.2834101  98.7696842  64.2535639   6.5786539  98.0013988  64.4083573
   3.2350199  98.6844207  60.5261664   3.0875161  97.7560914  60.7069234
   4.0603692  98.7064297  60.0418739   6.8384321  99.5072765  61.6126537
   7.7630868  99.3015627  61.4750988   6.6699624  99.2589167  62.5215878
   3.2311713  86.5382044  55.5193781   3.4475328  87.4206682  55.2182609
   2.7505780  86.1468258  54.7899423   1.6833448  86.9207646  64.1898543
   1.4251226  87.8424716  64.1882873   1.1518489  86.5238080  64.8799007
   6.6279637 100.0258433  56.9688628   6.8016514  99.4604855  56.2162481
   7.1208528 100.8259328  56.7868118   2.1035404  83.0539596  60.5499705
   2.1257101  83.1178929  59.5951685   2.5203463  82.2144105  60.7440212
  12.4819028  92.7894856  58.5878928  12.9250174  92.0402181  58.1898051
  11.6045538  92.7804992  58.2052660   7.6154809  99.3425197  54.0685526
   8.3105714  99.9631890  54.2872841   7.9577960  98.4920548  54.3437904
   9.5146233  96.7924903  55.5972857  10.0397557  97.1312176  54.8722177
   9.4268585  95.8571918  55.4135992   1.1766281 100.7058976  67.7262734
   1.4853408 100.4608123  68.5985433   1.9741763 100.9105615  67.2381604
   1.1986893 102.8596886  59.9568110   0.7591884 102.3673265  60.6500967
   1.9495010 102.3169854  59.7160186   9.2040139  97.4257806  70.9024055
   8.4135682  97.4081945  70.3628555   8.9673493  97.9646100  71.6573092
   9.3238014  94.2750273  68.2156784   9.3736019  94.1100280  69.1572307
   9.2151937  93.4077532  67.8254665   6.6141776  90.2581201  69.5316090
   7.5151639  90.1187666  69.2400088   6.6889751  90.4235656  70.4714268
  10.8256210  96.6947214  68.4598805  10.5341019  97.0577195  69.2962266
  10.2128342  95.9814223  68.2812137  12.0251893  94.2600094  60.9801376
  12.8598784  94.6989898  61.1438936  12.1611022  93.7838747  60.1609621
   9.0743399  91.8179829  66.9278863   9.5497520  92.0107475  66.1197715
   8.1508964  91.8739015  66.6822247   3.6523615  83.8527673  65.8934697
   4.1705559  84.5888699  65.5681186   3.2978748  84.1591666  66.7281456
   3.9036209  80.2727955  61.4135594   4.1837963  79.6051144  62.0396020
   4.6886816  80.4657051  60.9010258   1.7069678  99.4486949  52.9760620
   1.1343645 100.0677136  52.5231092   2.2802472  99.9986311  53.5100542
   7.7745068  88.6945589  65.1607169   8.7262491  88.7943687  65.1819393
   7.6048518  87.9023858  65.6705253   5.7959447  85.7801172  65.3466570
   5.2009379  86.0606185  64.6513058   5.5109144  86.2695073  66.1183311
   4.9266938  99.7324099  54.1069202   5.8597611  99.6669661  54.3102078
   4.8390150 100.5680366  53.6483735   7.5554954  99.0489969  51.0673150
   7.4768586  98.7149833  51.9608908   8.3764621  99.5411737  51.0664622
  10.2533145  91.9151709  64.2749469  10.2209466  90.9767709  64.4609152
  10.8633769  91.9935745  63.5415293   2.0916476  90.7847762  50.3176673
   3.0375581  90.6553970  50.3865091   1.7130721  90.0462424  50.7946101
  10.4027634  88.7062752  64.3207752   9.8866683  87.9221209  64.1337681
  11.2867582  88.3781469  64.4854271   8.0638361  82.4503768  60.2803564
   7.8663182  82.1418856  61.1646896   8.6738066  83.1765407  60.4101494
  16.0709695  92.9767716  63.4155505  16.8013084  92.7153004  63.9763209
  15.4616641  92.2396438  63.4557573  14.1524992  91.1175578  64.0129957
  13.4258156  90.9831543  63.4046448  13.7372279  91.4252407  64.8186675
   1.9755169  94.8365508  71.7777330   2.8958178  95.0144107  71.9717376
   1.9404752  93.8921553  71.6257029   1.8921459  83.2534628  56.4075799
   1.0822188  82.9081713  56.7831045   2.5805876  82.9442172  56.9963411
   3.8212008  82.3312675  58.0300096   4.3743046  82.7508128  58.6890119
   4.0582094  81.4048423  58.0723052   7.1990815  84.4413200  57.5378760
   6.6189484  85.0998004  57.1556812   6.9326747  83.6190544  57.1266177
   5.6494381  83.8418257  59.7400080   6.1494159  83.9534792  58.9314399
   6.2929989  83.5379310  60.3800889   5.9815693  86.6013290  56.5935108
   5.0941548  86.8862941  56.3755303   6.3969682  86.4407054  55.7462385
   9.3330229  86.6259811  60.3089448  10.1090619  87.1156264  60.5814064
   8.6078363  87.0517865  60.7661317  11.7702787  87.3387430  61.3663388
  12.3647278  87.0983166  60.6556696  11.8429371  86.6194561  61.9936924
   5.1258906  96.3657965  50.6883128   5.8294756  96.5707967  51.3040784
   4.4021555  96.9334727  50.9532212   5.9556716  92.1167826  56.8085398
   5.8991918  92.5736378  55.9693031   6.5085059  91.3558511  56.6308241
   9.7661522  87.9057558  57.6335518   9.5098457  87.5054194  58.4643726
   9.1414390  88.6201352  57.5085657  14.0773860  90.6453631  60.1406809
  13.5173418  90.7146821  60.9138371  13.4717364  90.4694616  59.4206306
   7.0345603  96.8040494  52.7381588   7.8691207  96.3721692  52.5559063
   6.8729946  96.6322508  53.6658483   6.6891496  93.3072607  54.1037928
   6.6340299  93.1416879  53.1626372   6.0637551  94.0148640  54.2600117
   4.0037403  95.6121519  73.4291490   4.8728562  95.7862171  73.0678125
   3.5244154  96.4315936  73.3067220   3.8139741  79.4023493  57.9369183
   3.0472136  78.8481980  58.0825865   4.2250446  79.4745362  58.7983334
  15.6629879 107.3210145  62.8336765  16.3008289 107.2016892  62.1300105
  15.5450721 108.2690989  62.8924717  12.4719585 107.2737573  62.7698290
  12.1338096 107.1578638  61.8818825  13.3409353 106.8728738  62.7499296
  12.9539368 108.4272425  68.7284495  12.9428009 108.0325223  67.8564999
  13.1160007 107.6938498  69.3218267  10.1727864 106.0425821  52.1015230
  10.4253385 105.5207342  51.3398693   9.2352423 105.8791966  52.2041913
  15.2171147 105.0461599  59.9089973  16.0034236 104.6281022  59.5580390
  15.4809851 105.9507691  60.0771621  20.6179574 104.9836832  60.8122952
  21.3504746 104.4136049  61.0460781  19.8618930 104.5958433  61.2529457
  12.2355694 107.4064074  58.0086294  11.8713901 106.8794695  58.7199216
  13.0922810 107.0162543  57.8352779  18.1404995  98.6958406  65.2717560
  17.8088319  99.5653817  65.0478775  17.5450608  98.3794690  65.9511591
  11.8761181 102.4353973  53.0047643  12.0435583 103.3034210  53.3718114
  11.6858350 102.5981255  52.0808932  18.0333658 103.4153492  62.3510910
  17.1250535 103.3468901  62.0569671  17.9821254 103.8925437  63.1792736
  11.8550402 104.8911631  53.9894309  11.7350027 105.3368682  54.8279790
  11.1602990 105.2396949  53.4307848  12.1074524 104.8343138  70.2945808
  11.3307858 105.3937058  70.2848672  12.7465087 105.3199921  70.8160678
  19.8995304 101.6169931  64.1288784  19.2569685 101.9102464  63.4828579
  19.3950233 101.5022851  64.9341981  17.5535468 105.3633104  54.8174643
  18.4653324 105.5960491  54.6422341  17.0445115 105.9470148  54.2549722
  15.8376236 109.7857732  68.4535936  16.2459592 109.3440142  67.7090568
  15.1153497 109.2110359  68.7070129  12.1907306 104.7230339  65.8269493
  13.0368501 105.1469752  65.9704142  12.1305943 104.0663963  66.5208056
  15.3406751 102.3834707  67.4850667  15.0967683 103.1376768  66.9484942
  15.6166681 102.7620055  68.3197914  17.2945214 108.9273319  66.1627932
  17.5062109 109.5705079  65.4862313  17.2474962 108.0935636  65.6949862
  14.8971443 101.5391140  63.0664504  14.0355922 101.8372394  63.3581242
  14.9233877 101.7561539  62.1345537  10.6501898 106.2056483  56.2827875
  11.3525942 106.6577527  56.7501801  10.3182527 105.5640302  56.9107768
   9.0982260 104.7968240  70.6579085   8.4680920 105.4784520  70.8914481
   8.9918348 104.6851321  69.7132223   4.3927232 104.4640036  61.5845009
   3.6026286 104.7197564  61.1085119   4.8838480 105.2788373  61.6897049
   6.3441978 104.8284615  58.5428485   5.5473141 104.9403309  59.0611981
   6.1167570 105.1671267  57.6769376  26.4997035 108.1484023  60.6835261
  25.7460743 107.5791421  60.5279265  26.6344576 108.1146688  61.6305896
   8.3763002  99.0989005  73.0204336   7.9829948  98.5455204  73.6951980
   9.1929143  99.4099584  73.4110853  11.2930963 100.5146885  70.6124592
  12.0340677 101.1154038  70.5329055  11.5248886  99.7724522  70.0542635
   6.4372301 105.7003252  68.8902822   6.3225817 104.7988509  69.1909921
   5.5816819 105.9466949  68.5387638  15.2388126  96.5427987  64.8888874
  14.8952396  97.4329629  64.8127984  15.6067089  96.3529645  64.0258459
  15.2038409 106.5336599  53.3961309  14.6885033 107.3041203  53.6349696
  14.9315718 105.8601735  54.0194370  12.7885520 101.3786299  58.4546547
  11.9327116 100.9893150  58.2752186  13.2012472 101.4578260  57.5946333
  14.3184667  98.9132643  62.8538107  13.8149462  98.8762778  62.0405912
  14.6115274  99.8225385  62.9134764  10.5627553  98.9971372  61.8604289
  11.4280549  98.8014181  61.5010178  10.6305062  98.7681724  62.7873646
  20.1772683 109.2868953  55.3314482  19.4002126 108.9480113  54.8869644
  20.8564164 109.2921576  54.6569447  14.9924712 104.4063691  55.2221090
  14.6874848 104.7209840  56.0731233  15.9455154 104.4845111  55.2648423
  18.4163990 108.7602934  61.9881090  17.7587665 109.4502196  62.0761219
  19.2204389 109.1499366  62.3315077   8.1689872 101.2273580  59.2320656
   8.7433624 101.0048762  58.4993849   8.7560854 101.2962275  59.9849257
  17.2269449 107.1147307  60.0385032  17.7401331 107.7477299  60.5406742
  17.8770673 106.5148503  59.6728392   8.4959459 103.2578041  53.2516541
   7.6596771 103.5952728  53.5725816   8.3564228 103.1227021  52.3143678
  10.4712539  98.1014829  57.9595725   9.8176952  97.7863846  57.3352340
  10.4293014  97.4790570  58.6855548  11.5823744 108.3834124  49.8749017
  10.6750806 108.1523378  50.0740166  12.0794776 107.5871743  50.0622999
  13.7050280 104.5896763  62.2843373  12.7872841 104.8111710  62.1265061
  14.1210423 104.6643073  61.4255080  14.4885328 105.9888178  57.4146053
  15.2357146 106.5009576  57.1053175  14.7576917 105.6672231  58.2750446
  12.7611978 108.4846719  54.3973007  11.8523197 108.2005752  54.4945477
  12.7907062 108.9045798  53.5376314  16.9364165 103.0245295  59.3964842
  16.1986921 102.5122681  59.7275085  17.1890938 102.5845676  58.5848119
  17.0375792  95.8021547  59.9906612  17.3434669  94.9418910  59.7032527
  17.7628397  96.3939167  59.7905605  11.3096872 106.0975340  60.4982803
  11.3645482 105.1449176  60.4225279  10.4988074 106.2534779  60.9824101
   9.2489232 104.7152399  58.2573181   8.4357097 105.0146570  58.6638374
   9.7448226 104.3208088  58.9747664  14.8463443 105.1794224  67.0888075
  15.2012831 105.4065697  67.9482541  15.4935575 105.5112601  66.4665331
  20.5761180 108.3012660  57.7937404  20.4379079 108.4914256  56.8658594
  20.2197399 109.0632043  58.2505455   8.7403306 102.2870755  63.8734416
   9.3802686 102.1459514  63.1757380   7.9080837 102.0005268  63.4973018
  20.6030560 110.3689187  62.8048676  21.0367067 110.2764476  63.6531730
  21.3162141 110.3446687  62.1668692   5.8246374 105.7316267  56.0629162
   4.8943962 105.6700723  56.2799124   5.9203846 105.2092220  55.2665803
   5.7431923 102.2571080  58.6507403   6.0038740 103.1716413  58.5416564
   6.5649095 101.7895523  58.8004016   7.2156848 103.6708837  65.8206228
   7.8879902 103.4626199  65.1718877   6.3886635 103.4730923  65.3811460
  21.4646109 110.4112887  65.3381561  21.6582000 111.3158698  65.5840836
  21.3646728 109.9520307  66.1720146  13.1182420 100.2970778  67.8371889
  12.4710335 100.9960728  67.7436365  13.8883436 100.7306922  68.2048137
  13.2946555 108.1351543  65.8968708  14.2238615 108.2862703  65.7237676
  12.8737585 108.2235564  65.0417355   7.6184345 106.9451440  66.5808665
   7.4804143 106.2131679  67.1820204   8.5289269 106.8560340  66.2992853
  16.5799293 108.8839844  51.3293143  15.9628464 108.1586673  51.2326196
  16.1115782 109.6449205  50.9860218  10.2466646 106.6571399  66.0692345
  10.9566265 106.0164592  66.0278963  10.2035954 106.9084294  66.9918525
   8.9595580 103.6436617  67.8887984   8.4232937 103.1927356  68.5409580
   8.3712289 103.7782526  67.1458448   8.3697839 103.1025269  50.4514448
   7.4927305 102.9814070  50.0876694   8.8455592 102.3111347  50.1993336
   4.6934701 102.7792625  64.9740979   4.6092890 102.1718295  64.2391388
   3.8717408 103.2701643  64.9750475  14.8658415 101.2646189  60.3411174
  15.3627115 100.5116151  60.0212244  14.0945397 101.3010505  59.7754383
  22.7188173 106.9686554  61.9829465  22.7078049 107.8511270  61.6123398
  21.8505552 106.6158105  61.7884002  11.4493384 103.4063572  60.0682858
  11.0791171 102.8534612  60.7563764  11.9452476 102.8021705  59.5157858
  19.3360747 105.8635195  58.4499631  19.8021199 106.6963187  58.3759934
  19.7868248 105.3980177  59.1544890  17.3077410  98.2315782  62.4890532
  16.3940490  98.4620009  62.6572739  17.7370511  98.3154226  63.3404565
  17.0783868 106.4205674  64.9890426  16.4255319 106.6681581  64.3342879
  17.4564248 105.6069812  64.6552904  13.1271442 107.1625485  71.4756464
  12.4512079 107.0619614  72.1458839  13.9499075 107.0064699  71.9392461
   6.8458718 100.8167562  66.3135964   6.9100044 101.6782393  65.9013362
   6.7825838 100.2041564  65.5808323   6.3210990 102.8890695  69.9608998
   6.9483029 102.5067772  70.5746523   5.4638909 102.6704897  70.3264691
   3.0976533 104.6967124  55.8927353   3.3929974 103.7877802  55.8394407
   2.1964569 104.6754863  55.5708356   6.6270780 102.7723121  61.8754902
   5.9057366 103.3859088  61.7362375   7.4164036 103.3080885  61.7971548
   9.4297093 100.1077547  68.1495554   9.9531495 100.3539844  68.9121863
   9.2109427 100.9397582  67.7298691   4.8264374 102.3781222  56.0166678
   4.4977081 101.4978601  55.8341784   5.1803745 102.3228890  56.9043068
   7.9406198 102.6654191  56.3842156   8.2802270 103.1940113  55.6620765
   8.3878318 103.0034598  57.1600723  10.6349638 101.0491242  65.8345224
  10.2946459 100.2499055  66.2365904   9.9288645 101.3492953  65.2622057
  11.2866110  98.1340555  64.2872547  12.1092180  97.6601033  64.1651438
  11.5304174  98.9131038  64.7871234   9.9274345 101.1628813  54.5835449
  10.6482707 101.5410066  54.0799166   9.3039649 101.8817690  54.6870427
  14.0705468 101.8673962  55.5193781  14.2869082 102.7498600  55.2182609
  13.5899535 101.4760175  54.7899423   8.8104689 104.8259675  62.0964526
   8.6649270 105.1399978  62.9888807   8.3329893 105.4444576  61.5435424
  10.6701072 101.8162223  62.1445415  10.6562641 100.9203317  61.8077713
  11.3873500 101.8232887  62.7783701  12.5227203 102.2499563  64.1898543
  12.2644980 103.1716634  64.1882873  11.9912243 101.8529998  64.8799007
  10.0737968 100.6976603  57.4132986  10.1953879  99.7693250  57.6123873
   9.7840010 100.7115289  56.5011301  12.9429158  98.3831514  60.5499705
  12.9650855  98.4470847  59.5951685  13.3597217  97.5436023  60.7440212
  23.3212783 108.1186773  58.5878928  23.7643929 107.3694099  58.1898051
  22.4439293 108.1096910  58.2052660   9.5579047 102.2108601  71.6222918
   9.6067203 103.0870724  71.2400688  10.1001562 101.6685994  71.0494561
  20.1631768 109.6042190  68.2156784  20.2129773 109.4392198  69.1572307
  20.0545691 108.7369449  67.8254665  17.4535531 105.5873118  69.5316090
  18.3545393 105.4479583  69.2400088  17.5283505 105.7527573  70.4714268
  11.7878336 102.9639973  68.3769277  10.9181645 103.2573539  68.1051865
  12.0237816 103.5480418  69.0976540  22.8645647 109.5892012  60.9801376
  23.6992539 110.0281816  61.1438936  23.0004776 109.1130665  60.1609621
  19.9137153 107.1471747  66.9278863  20.3891275 107.3399393  66.1197715
  18.9902719 107.2030932  66.6822247  14.4917370  99.1819590  65.8934697
  15.0099314  99.9180617  65.5681186  14.1372502  99.4883583  66.7281456
   6.0716307 104.0424271  54.0096103   5.3785552 104.1168626  53.3536139
   5.8268059 103.2784615  54.5317620  14.7429964  95.6019873  61.4135594
  15.0231718  94.9343062  62.0396020  15.5280571  95.7948968  60.9010258
  18.6138822 104.0237507  65.1607169  19.5656245 104.1235604  65.1819393
  18.4442273 103.2315775  65.6705253  16.6353202 101.1093090  65.3466570
  16.0403134 101.3898103  64.6513058  16.3502898 101.5986991  66.1183311
  21.0926900 107.2443626  64.2749469  21.0603220 106.3059627  64.4609152
  21.7027524 107.3227663  63.5415293  12.9310231 106.1139679  50.3176673
  13.8769336 105.9845887  50.3865091  12.5524476 105.3754341  50.7946101
  21.2421388 104.0354670  64.3207752  20.7260437 103.2513126  64.1337681
  22.1261337 103.7073386  64.4854271  18.9032115  97.7795685  60.2803564
  18.7056937  97.4710774  61.1646896  19.5131821  98.5057324  60.4101494
  26.9103450 108.3059633  63.4155505  27.6406838 108.0444921  63.9763209
  26.3010395 107.5688355  63.4557573  24.9918747 106.4467496  64.0129957
  24.2651911 106.3123461  63.4046448  24.5766034 106.7544324  64.8186675
  11.1153148 104.0389656  50.2531558  10.2084603 103.7422768  50.3294271
  11.3929129 103.7419474  49.3865844  12.7315214  98.5826545  56.4075799
  11.9215942  98.2373630  56.7831045  13.4199631  98.2734089  56.9963411
  14.6605762  97.6604592  58.0300096  15.2136801  98.0800046  58.6890119
  14.8975848  96.7340340  58.0723052  10.6838861 103.6491666  73.8102860
  10.5835588 104.5986023  73.7414951  10.4660403 103.3209905  72.9378930
   9.8851933 100.8976591  50.3943537  10.7471097 101.2231489  50.6539354
  10.0702277 100.1108087  49.8816603  18.0384569  99.7705117  57.5378760
  17.4583238 100.4289921  57.1556812  17.7720502  98.9482462  57.1266177
  16.4888135  99.1710175  59.7400080  16.9887914  99.2826710  58.9314399
  17.1323743  98.8671228  60.3800889  10.5470131 107.0788805  72.6267921
  10.0637213 107.8789165  72.8331810  10.6331070 107.0896750  71.6735365
  16.8209447 101.9305208  56.5935108  15.9335302 102.2154858  56.3755303
  17.2363436 101.7698971  55.7462385  20.1723983 101.9551729  60.3089448
  20.9484373 102.4448181  60.5814064  19.4472117 102.3809783  60.7661317
  22.6096542 102.6679348  61.3663388  23.2041033 102.4275084  60.6556696
  22.6823126 101.9486479  61.9936924  16.7950471 107.4459744  56.8085398
  16.7385672 107.9028295  55.9693031  17.3478813 106.6850428  56.6308241
  20.6055277 103.2349476  57.6335518  20.3492211 102.8346111  58.4643726
  19.9808145 103.9493270  57.5085657  24.9167615 105.9745549  60.1406809
  24.3567173 106.0438738  60.9138371  24.3111118 105.7986533  59.4206306
  17.5285250 108.6364525  54.1037928  17.4734054 108.4708796  53.1626372
  16.9031305 109.3440558  54.2600117   2.3177765 103.8732589  67.9299350
   2.9636629 103.3631543  68.4186575   2.1094916 104.6101271  68.5042775
  10.8381376  98.1372634  53.6823246  10.8260045  99.0814474  53.8391517
  11.7304797  97.9542779  53.3882707  14.6533495  94.7315411  57.9369183
  13.8865891  94.1773897  58.0825865  15.0644200  94.8037279  58.7983334
   6.6575256 101.0200206  72.0274364   7.5206718 100.6637011  72.2377689
   6.0840667 100.6814101  72.7149768  26.0781881 111.8719905  64.8888874
  25.7346150 112.7621547  64.8127984  26.4460843 111.6821563  64.0258459
  27.8769547 111.1313464  59.9906612  28.1828423 110.2710828  59.7032527
  28.6022151 111.7231085  59.7905605  28.1471164 113.5607700  62.4890532
  27.2334244 113.7911927  62.6572739  28.5764266 113.6446144  63.3404565
  25.5823718 110.9311790  61.4135594  25.8625472 110.2634979  62.0396020
  26.3674325 111.1240886  60.9010258  29.7425870 113.1087603  60.2803564
  29.5450691 112.8002691  61.1646896  30.3525575 113.8349242  60.4101494
  25.4999516 112.9896510  58.0300096  26.0530555 113.4091963  58.6890119
  25.7369603 112.0632258  58.0723052  25.4927250 110.0607328  57.9369183
  24.7259645 109.5065815  58.0825865  25.9037955 110.1329197  58.7983334
   4.8209527  54.4962311  47.4080568   4.0673235  53.9269709  47.2524572
   4.9557068  54.4624975  48.3551202   1.6425275  54.4665061  45.3124235
   2.0856421  53.7172386  44.9143358   0.7651785  54.4575197  44.9297967
   1.1858140  55.9370299  47.7046682   2.0205031  56.3760103  47.8684243
   1.3217268  55.4608952  46.8854928   5.2315942  54.6537920  50.1400812
   5.9619331  54.3923209  50.7008515   4.6222888  53.9166642  50.1802880
   3.3131239  52.7945783  50.7375263   2.5864403  52.6601748  50.1291755
   2.8978526  53.1022612  51.5431981   0.9309034  49.0157635  48.0908695
   1.5253525  48.7753371  47.3802003   1.0035618  48.2964766  48.7182231
   3.2380107  52.3223836  46.8652116   2.6779665  52.3917025  47.6383678
   2.6323610  52.1464821  46.1451612   4.8236125  68.9980350  49.5582072
   5.4614535  68.8787097  48.8545412   4.7056968  69.9461194  49.6170024
   1.6325832  68.9507778  49.4943596   1.2944343  68.8348843  48.6064131
   2.5015600  68.5498943  49.4744603   2.1145615  70.1042630  55.4529802
   2.1034255  69.7095428  54.5810306   2.2766254  69.3708702  56.0463573
   3.0712206  74.4714222  40.7954952   2.4200186  75.0568303  40.4088966
   3.8656569  75.0020417  40.8549990   4.3777394  66.7231804  46.6335280
   5.1640483  66.3051227  46.2825697   4.6416098  67.6277896  46.8016928
   4.5487471  72.1604654  41.3323937   3.9133304  72.2339281  42.0444841
   4.2184878  72.7498253  40.6543016   9.7785821  66.6607037  47.5368258
  10.5110993  66.0906254  47.7706088   9.0225177  66.2728638  47.9774764
   1.3961941  69.0834279  44.7331601   1.0320148  68.5564900  45.4444522
   2.2529057  68.6932748  44.5598086   7.3011241  60.3728611  51.9962867
   6.9694566  61.2424022  51.7724082   6.7056855  60.0564895  52.6756897
   1.0367428  64.1124178  39.7292949   1.2041830  64.9804415  40.0963420
   0.8464597  64.2751460  38.8054238   3.7942761  72.5741157  51.3958780
   3.4943484  73.4766196  51.2874587   3.4493820  72.3073340  52.2479932
   7.1939905  65.0923697  49.0756217   6.2856782  65.0239106  48.7814978
   7.1427500  65.5695642  49.9038042   1.2680770  66.5113343  57.0191114
   0.4914104  67.0707263  57.0093979   1.9071333  66.9970126  57.5405984
   9.0601551  63.2940136  50.8534091   8.4175931  63.5872669  50.2073885
   8.5556480  63.1793056  51.6587287   6.7141715  67.0403309  41.5419950
   7.6259571  67.2730696  41.3667648   6.2051362  67.6240353  40.9795029
   4.9982482  71.4627937  55.1781243   5.4065838  71.0210347  54.4335875
   4.2759744  70.8880564  55.4315436   1.3513552  66.4000544  52.5514800
   2.1974748  66.8239957  52.6949449   1.2912190  65.7434168  53.2453363
   5.3211297  72.0229127  48.9333532   4.6920159  72.1874842  48.2309599
   4.9336959  72.4370737  49.7044496   9.2000529  72.9583565  46.2877895
   8.5151567  73.3382467  45.7374929   9.2844378  73.5678892  47.0209843
   4.5012998  64.0604912  54.2095973   4.2573930  64.8146972  53.6730249
   4.7772928  64.4390260  55.0443220   6.4551461  70.6043524  52.8873239
   6.6668356  71.2475284  52.2107620   6.4081209  69.7705841  52.4195169
   4.0577689  63.2161345  49.7909811   3.1962169  63.5142599  50.0826549
   4.0840124  63.4331744  48.8590844   0.8739259  71.7603536  46.1983617
   1.3377604  72.0391238  45.4088239   0.6096057  70.8586980  46.0156707
   7.5697288  73.4815480  51.0595596   8.3914732  73.0795667  50.7778278
   7.5659691  73.3783714  52.0111712   1.3353892  73.0299523  53.2156307
   1.3998324  73.4919930  54.0514479   0.6264816  72.3996888  53.3438617
  15.6603282  69.8254228  47.4080568  14.9066990  69.2561626  47.2524572
  15.7950823  69.7916893  48.3551202   1.0501910  74.6967631  43.0835287
   0.9147584  75.5419166  43.5120135   1.5911722  74.8986908  42.3201221
   2.6770386  75.3191197  57.2135629   2.2334240  74.5327576  56.8956534
   3.3387600  75.5070348  56.5479520   4.7751624  75.5993997  55.2417030
   4.7570099  76.4202878  54.7497300   5.6971544  75.4748072  55.4667172
   1.2324678  73.1138126  56.0840539   1.7653015  72.3526415  55.8539847
   0.7038759  72.8211778  56.8264693   4.3994373  58.2198192  51.6134180
   4.0558643  59.1099834  51.5373291   4.7673336  58.0299850  50.7503765
   4.3644656  68.2106803  40.1206616   3.8491279  68.9811408  40.3595003
   4.0921964  67.5371940  40.7439677   1.9491767  63.0556504  45.1791854
   1.0933363  62.6663355  44.9997493   2.3618719  63.1348465  44.3191639
   3.4790914  60.5902848  49.5783414   2.9755709  60.5532983  48.7651219
   3.7721520  61.4995590  49.6380070   9.3378930  70.9639158  42.0559789
   8.5608373  70.6250318  41.6114951  10.0170411  70.9691781  41.3814754
   4.1530959  66.0833896  41.9466397   3.8481095  66.3980045  42.7976540
   5.1061401  66.1615315  41.9893730   2.5977391  72.2424119  43.5959351
   2.0698752  71.5076878  43.2832588   2.0964894  73.0198795  43.3499319
   7.5770237  70.4373139  48.7126397   6.9193911  71.1272401  48.8006526
   8.3810636  70.8269571  49.0560383   6.3875696  68.7917512  46.7630339
   6.9007577  69.4247504  47.2652049   7.0376920  68.1918708  46.3973699
   3.6498070  78.7701836  39.5191010   2.9759769  79.0733533  40.1275968
   4.0363892  79.5730917  39.1696467   2.8656527  66.2666968  49.0088679
   1.9479088  66.4881915  48.8510367   3.2816670  66.3413278  48.1500387
   3.6491574  67.6658383  44.1391360   4.3963393  68.1779781  43.8298482
   3.9183164  67.3442436  44.9995753   1.9218224  70.1616924  41.1218314
   1.0129444  69.8775957  41.2190784   1.9513308  70.5816003  40.2621621
   7.1537492  73.7723514  44.8909481   6.6999819  72.9314423  44.9474672
   6.5231459  74.4084912  45.2284262   6.0970411  64.7015500  46.1210149
   5.3593168  64.1892886  46.4520391   6.3497185  64.2615881  45.3093426
   5.5970431  75.6100010  45.8259300   5.8893406  76.1705067  45.1071665
   6.1069052  75.9028571  46.5812459   6.1982039  57.4791752  46.7151918
   6.5040916  56.6189115  46.4277833   6.9234644  58.0709372  46.5150912
   1.6194312  71.7025668  38.4606392   1.1813742  70.9861527  38.0012030
   2.3604753  71.9301783  37.8991484   0.5604056  76.3880361  46.9152753
   0.5180235  76.6141208  45.9861285   1.4766755  76.1543736  47.0638554
   4.0069690  66.8564429  53.8133382   4.3619078  67.0835902  54.6727848
   4.6541821  67.1882806  53.1910637   9.7367427  69.9782865  44.5182711
   9.5985326  70.1684461  43.5903900   9.3803646  70.7402248  44.9750762
   9.7636807  72.0459392  49.5293983  10.1973313  71.9534681  50.3777037
  10.4768387  72.0216892  48.8913999   3.4964702  75.6461486  51.0627083
   3.5501724  76.2152422  51.8304799   2.6279483  75.8163371  50.6981120
  10.6252356  72.0883092  52.0626868  10.8188246  72.9928903  52.3086143
  10.5252974  71.6290511  52.8965453   2.2788667  61.9740983  54.5617195
   1.6316582  62.6730933  54.4681672   3.0489682  62.4077127  54.9293443
   5.6867465  72.2389835  57.6367749   5.5352971  72.0100387  56.7197832
   5.6772144  73.1960437  57.6499094   2.4552801  69.8121748  52.6214015
   3.3844861  69.9632908  52.4482982   2.0343831  69.9005769  51.7662661
   1.8489285  78.9381509  41.7338089   2.0241041  78.4669552  42.5483712
   1.1622073  79.5647275  41.9619350   2.8046348  73.2154015  47.7801390
   2.4696181  73.1754785  48.6759040   2.3050294  72.5498731  47.3071801
   5.7405540  70.5610049  38.0538450   5.1234711  69.8356878  37.9571503
   5.2722028  71.3219410  37.7105524   7.3959672  75.2708958  55.7144230
   7.3372218  74.5868178  55.0474813   7.7979190  76.0127948  55.2624856
   7.3977079  73.2348542  53.9458210   6.5103858  72.8974463  54.0684609
   7.9675630  72.5031573  54.1826975   0.9278232  77.8949994  50.9119453
   0.8548404  78.7004965  51.4238758   0.4855625  78.0941960  50.0867475
   4.0264662  62.9416393  47.0656480   4.5233362  62.1886356  46.7457550
   3.2551643  62.9780710  46.4999690  11.8794419  68.6456759  48.7074772
  11.8684296  69.5281474  48.3368705  11.0111799  68.2928310  48.5129309
   3.3876916  77.7936828  53.0677612   4.1004888  78.4284293  52.9953513
   2.8966944  77.8900694  52.2517614   5.1094443  71.6988081  44.6394904
   4.1750721  71.8189543  44.4699608   5.2871111  70.7960547  44.3754913
   8.4966994  67.5405400  45.1744938   8.9627446  68.3733392  45.1005240
   8.9474495  67.0750382  45.8790196   6.5643225  73.8849221  42.1731090
   6.8403069  73.7705816  43.0824964   5.6947724  73.4866706  42.1343263
   6.4683657  59.9085987  49.2135839   5.5546737  60.1390214  49.3818046
   6.8976758  59.9924431  50.0649871   6.2390115  68.0975879  51.7135733
   5.5861565  68.3451786  51.0588186   6.6170495  67.2840017  51.3798210
   3.1997289  78.1335572  45.8163903   3.3819684  77.3157228  46.2791656
   4.0230275  78.3503264  45.3788793   3.5339455  77.0603757  43.0778952
   4.0627221  76.5496212  42.4649114   3.7967674  76.7446287  43.9424485
   2.2877688  68.8395690  58.2001770   1.6118325  68.7389819  58.8704145
   3.1105322  68.6834904  58.6637767   1.0300471  80.1462617  52.4359386
   1.5818779  80.3094239  53.2008471   1.3706665  80.7367055  51.7639411
   5.8811345  74.9723875  58.2908041   6.4251249  75.5853833  57.7962995
   5.2998190  75.5303453  58.8075054   4.1668858  78.0944593  49.4223068
   4.0419998  77.2934333  48.9134014   4.8247950  78.5890786  48.9337038
   6.2303767  75.8953613  51.0502618   5.2834102  75.7758964  50.9780945
   6.5786540  75.0076111  51.1328880   3.2350200  75.6906329  47.2506971
   3.0875163  74.7623037  47.4314541   4.0603694  75.7126420  46.7664046
   6.8384322  76.5134888  48.3371843   7.7630869  76.3077749  48.1996295
   6.6699625  76.2651289  49.2461185   3.2311714  63.5444167  42.2439088
   3.4475329  64.4268805  41.9427916   2.7505782  63.1530380  41.5144730
   1.6833449  63.9269768  50.9143849   1.4251227  64.8486839  50.9128180
   1.1518490  63.5300203  51.6044314   6.6279638  77.0320555  43.6933935
   6.8016516  76.4666978  42.9407787   7.1208529  77.8321450  43.5113425
   2.1035405  60.0601719  47.2745012   2.1257102  60.1241052  46.3196992
   2.5203464  59.2206227  47.4685518  12.4819029  69.7956978  45.3124235
  12.9250175  69.0464304  44.9143358  11.6045540  69.7867115  44.9297967
   7.6154811  76.3487320  40.7930833   8.3105715  76.9694013  41.0118148
   7.9577961  75.4982671  41.0683211   9.5146234  73.7987025  42.3218164
  10.0397558  74.1374298  41.5967484   9.4268586  72.8634041  42.1381299
   1.1766282  77.7121099  54.4508041   1.4853409  77.4670246  55.3230740
   1.9741764  77.9167737  53.9626911   1.1986895  79.8659009  46.6813417
   0.7591885  79.3735387  47.3746274   1.9495011  79.3231976  46.4405492
   9.2040140  74.4319929  57.6269362   8.4135684  74.4144068  57.0873861
   8.9673494  74.9708223  58.3818398   9.3238015  71.2812395  54.9402090
   9.3736020  71.1162403  55.8817613   9.2151938  70.4139654  54.5499971
   6.6141777  67.2643323  56.2561397   7.5151640  67.1249788  55.9645395
   6.6889752  67.4297778  57.1959575  10.8256212  73.7009337  55.1844112
  10.5341020  74.0639317  56.0207573  10.2128343  72.9876345  55.0057444
  12.0251894  71.2662217  47.7046682  12.8598785  71.7052021  47.8684243
  12.1611023  70.7900870  46.8854928   9.0743400  68.8241952  53.6524170
   9.5497522  69.0169598  52.8443021   8.1508965  68.8801137  53.4067554
   3.6523616  60.8589795  52.6180004   4.1705560  61.5950822  52.2926492
   3.2978749  61.1653788  53.4526763   3.9036211  57.2790078  48.1380900
   4.1837964  56.6113267  48.7641327   4.6886818  57.4719173  47.6255564
   1.7069679  76.4549072  39.7005927   1.1343646  77.0739259  39.2476399
   2.2802473  77.0048433  40.2345849   7.7745069  65.7007712  51.8852476
   8.7262492  65.8005809  51.9064700   7.6048519  64.9085980  52.3950560
   5.7959448  62.7863295  52.0711876   5.2009381  63.0668308  51.3758365
   5.5109145  63.2757196  52.8428618   4.9266939  76.7386222  40.8314509
   5.8597612  76.6731783  41.0347385   4.8390152  77.5742489  40.3729042
   7.5554956  76.0552092  37.7918457   7.4768587  75.7211956  38.6854214
   8.3764622  76.5473860  37.7909929  10.2533147  68.9213831  50.9994775
  10.2209467  67.9829832  51.1854459  10.8633770  68.9997868  50.2660600
   2.0916478  67.7909884  37.0421979   3.0375582  67.6616092  37.1110397
   1.7130723  67.0524546  37.5191407  10.4027635  65.7124875  51.0453058
   9.8866684  64.9283331  50.8582987  11.2867584  65.3843591  51.2099578
   8.0638362  59.4565890  47.0048871   7.8663183  59.1480979  47.8892203
   8.6738068  60.1827529  47.1346801  16.0709697  69.9829838  50.1400812
  16.8013085  69.7215126  50.7008515  15.4616642  69.2458560  50.1802880
  14.1524994  68.1237701  50.7375263  13.4258157  67.9893666  50.1291755
  13.7372281  68.4314529  51.5431981   1.9755170  71.8427630  58.5022636
   2.8958180  72.0206229  58.6962683   1.9404753  70.8983676  58.3502335
   1.8921460  60.2596750  43.1321106   1.0822189  59.9143835  43.5076352
   2.5805877  59.9504294  43.7208717   3.8212009  59.3374797  44.7545402
   4.3743047  59.7570251  45.4135425   4.0582095  58.4110545  44.7968358
   7.1990816  61.4475322  44.2624067   6.6189485  62.1060126  43.8802119
   6.9326749  60.6252667  43.8511484   5.6494382  60.8480380  46.4645387
   6.1494161  60.9596915  45.6559706   6.2929990  60.5441433  47.1046195
   5.9815694  63.6075413  43.3180415   5.0941549  63.8925063  43.1000610
   6.3969683  63.4469176  42.4707692   9.3330230  63.6321934  47.0334754
  10.1090620  64.1218386  47.3059371   8.6078364  64.0579988  47.4906624
  11.7702789  64.3449553  48.0908695  12.3647279  64.1045289  47.3802003
  11.8429372  63.6256684  48.7182231   5.1258907  73.3720087  37.4128435
   5.8294757  73.5770090  38.0286090   4.4021556  73.9396849  37.6777518
   5.9556718  69.1229949  43.5330705   5.8991919  69.5798500  42.6938337
   6.5085060  68.3620633  43.3553548   9.7661524  64.9119681  44.3580825
   9.5098458  64.5116316  45.1889032   9.1414392  65.6263474  44.2330964
  14.0773861  67.6515754  46.8652116  13.5173419  67.7208943  47.6383678
  13.4717365  67.4756738  46.1451612   7.0345605  73.8102617  39.4626895
   7.8691209  73.3783815  39.2804370   6.8729948  73.6384630  40.3903789
   6.6891497  70.3134730  40.8283234   6.6340301  70.1479001  39.8871678
   6.0637552  71.0210763  40.9845424   4.0037404  72.6183642  60.1536797
   4.8728564  72.7924294  59.7923432   3.5244156  73.4378059  60.0312526
   3.8139742  56.4085616  44.6614489   3.0472138  55.8544102  44.8071172
   4.2250447  56.4807484  45.5228641  15.6629880  84.3272268  49.5582072
  16.3008290  84.2079015  48.8545412  15.5450723  85.2753112  49.6170024
  12.4719586  84.2799696  49.4943596  12.1338098  84.1640761  48.6064131
  13.3409354  83.8790861  49.4744603   8.3306402  86.1335172  45.4840487
   7.7671267  86.0425109  44.7156775   8.2158797  85.3135077  45.9642980
  12.9539369  85.4334548  55.4529802  12.9428010  85.0387346  54.5810306
  13.1160009  84.7000620  56.0463573   5.8770834  87.6286364  48.3224708
   6.6692126  87.2877188  47.9071007   6.1167484  87.7381339  49.2426861
  13.9105961  89.8006140  40.7954952  13.2593940  90.3860220  40.4088966
  14.7050323  90.3312335  40.8549990   7.8361588  86.8895277  41.1942087
   8.6092464  86.3424264  41.0554962   8.1886987  87.7539526  41.4056548
   9.6746630  88.2171659  54.4008986   9.3836496  89.1217290  54.2855652
  10.3103615  88.2588187  55.1153055  10.6002837  85.5948508  50.9910346
  11.1966409  85.3704530  50.2767308  10.6577809  84.8533253  51.5935793
  10.1727866  83.0487943  38.8260536  10.4253386  82.5269464  38.0643999
   9.2352425  82.8854089  38.9287220  15.2171148  82.0523722  46.6335280
  16.0034238  81.6343145  46.2825697  15.4809853  82.9569814  46.8016928
  15.3881226  87.4896572  41.3323937  14.7527059  87.5631198  42.0444841
  15.0578632  88.0790171  40.6543016  20.6179575  81.9898955  47.5368258
  21.3504747  81.4198172  47.7706088  19.8618931  81.6020555  47.9774764
   9.8924154  84.9516049  41.0284911   9.7760412  84.2760953  41.6965996
  10.0026414  84.4648423  40.2117064  12.2355695  84.4126196  44.7331601
  11.8713902  83.8856817  45.4444522  13.0922811  84.0224665  44.5598086
  18.1404996  75.7020529  51.9962867  17.8088321  76.5715940  51.7724082
  17.5450609  75.3856813  52.6756897  11.8761182  79.4416096  39.7292949
  12.0435585  80.3096332  40.0963420  11.6858351  79.6043378  38.8054238
  14.6336515  87.9033075  51.3958780  14.3337238  88.8058114  51.2874587
  14.2887575  87.6365258  52.2479932   8.0848997  84.3546872  47.4295484
   7.1599493  84.2223086  47.6373176   8.3333410  85.1341091  47.9265426
  18.0333659  80.4215615  49.0756217  17.1250536  80.3531023  48.7814978
  17.9821255  80.8987560  49.9038042  11.8550403  81.8973753  40.7139616
  11.7350028  82.3430804  41.5525096  11.1602991  82.2459071  40.1553154
   5.4457808  83.9980145  48.2639273   5.5750189  84.2514624  49.1778685
   4.7655259  84.5907853  47.9443928   9.6157295  94.6677395  44.3629747
   9.5381325  95.6185220  44.4418228   9.0118939  94.3223268  45.0204674
  12.1074525  81.8405261  57.0191114  11.3307859  82.3999181  57.0093979
  12.7465088  82.3262044  57.5405984  19.8995306  78.6232053  50.8534091
  19.2569686  78.9164587  50.2073885  19.3950234  78.5084974  51.6587287
  17.5535469  82.3695227  41.5419950  18.4653325  82.6022613  41.3667648
  17.0445116  82.9532271  40.9795029  10.3620897  84.6490714  56.5809081
  11.1035582  85.1875758  56.3043905   9.6557883  85.2757003  56.7380633
  15.8376237  86.7919854  55.1781243  16.2459593  86.3502265  54.4335875
  15.1153498  86.2172482  55.4315436  12.1907307  81.7292461  52.5514800
  13.0368502  82.1531875  52.6949449  12.1305945  81.0726086  53.2453363
  16.1605052  87.3521045  48.9333532  15.5313914  87.5166759  48.2309599
  15.7730714  87.7662655  49.7044496  20.0394283  88.2875483  46.2877895
  19.3545322  88.6674384  45.7374929  20.1238133  88.8970810  47.0209843
  15.3406752  79.3896830  54.2095973  15.0967684  80.1438890  53.6730249
  15.6166683  79.7682177  55.0443220  17.2945215  85.9335442  52.8873239
  17.5062110  86.5767202  52.2107620  17.2474963  85.0997759  52.4195169
  14.8971444  78.5453263  49.7909811  14.0355923  78.8434516  50.0826549
  14.9233879  78.7623662  48.8590844  11.7133013  87.0895453  46.1983617
  12.1771359  87.3683156  45.4088239  11.4489811  86.1878898  46.0156707
   8.6057094  86.6366935  49.1363380   9.1758452  87.0654203  48.4980864
   9.1965206  86.3549519  49.8347566  10.6501899  83.2118606  43.0073182
  11.3525943  83.6639649  43.4747108  10.3182528  82.5702424  43.6353075
   9.0982261  81.8030362  57.3824391   8.4680922  82.4846643  57.6159788
   8.9918349  81.6913444  56.4377529   4.3927233  81.4702158  48.3090315
   3.6026287  81.7259687  47.8330426   4.8838481  82.2850496  48.4142356
  18.4091043  88.8107397  51.0595596  19.2308487  88.4087585  50.7778278
  18.4053446  88.7075632  52.0111712   6.3441979  81.8346737  45.2673792
   5.5473142  81.9465432  45.7857288   6.1167571  82.1733390  44.4014683
  12.1747646  88.3591441  53.2156307  12.2392079  88.8211848  54.0514479
  11.4658570  87.7288806  53.3438617   2.6764936  81.7232649  50.7405306
   2.9272975  82.6079659  51.0062882   3.2124485  81.5437250  49.9680398
  26.4997036  85.1546146  47.4080568  25.7460744  84.5853544  47.2524572
  26.6344577  85.1208810  48.3551202  11.8895664  90.0259548  43.0835287
  11.7541339  90.8711084  43.5120135  12.4305477  90.2278826  42.3201221
   8.3763004  76.1051128  59.7449642   7.9829949  75.5517327  60.4197286
   9.1929144  76.4161707  60.1356160   5.3425061  87.5434986  43.6563212
   5.8549582  88.3378236  43.8068777   5.9947774  86.8461277  43.5896814
   7.1519946  90.6600742  45.7385965   7.3286574  91.5818707  45.5506949
   7.9476780  90.3459162  46.1680345  11.2930965  77.5209007  57.3369899
  12.0340678  78.1216160  57.2574361  11.5248888  76.7786645  56.7787941
   6.4372303  82.7065374  55.6148128   6.3225818  81.8050632  55.9155227
   5.5816820  82.9529071  55.2632945  13.5164140  90.6483115  57.2135629
  13.0727995  89.8619493  56.8956534  14.1781354  90.8362265  56.5479520
   8.2751262  92.1778916  51.7396308   8.8258687  92.0495980  50.9673302
   7.4362738  92.4773805  51.3891200  15.6145379  90.9285915  55.2417030
  15.5963854  91.7494796  54.7497300  16.5365299  90.8039990  55.4667172
  12.0718433  88.4430044  56.0840539  12.6046769  87.6818332  55.8539847
  11.5432514  88.1503696  56.8264693  15.2388128  73.5490110  51.6134180
  14.8952397  74.4391752  51.5373291  15.6067090  73.3591768  50.7503765
   3.3073978  85.8723641  44.4322783   4.1449200  86.2820649  44.2156490
   3.4852246  84.9323083  44.4022976  15.2038410  83.5398721  40.1206616
  14.6885034  84.3103326  40.3595003  14.9315719  82.8663857  40.7439677
  12.7885521  78.3848422  45.1791854  11.9327118  77.9955272  44.9997493
  13.2012473  78.4640383  44.3191639  14.3184668  75.9194765  49.5783414
  13.8149464  75.8824900  48.7651219  14.6115275  76.8287508  49.6380070
  10.5627554  76.0033495  48.5849595  11.4280551  75.8076304  48.2255485
  10.6305063  75.7743847  49.5118952  20.1772684  86.2931076  42.0559789
  19.4002127  85.9542235  41.6114951  20.8564165  86.2983699  41.3814754
  14.9924714  81.4125813  41.9466397  14.6874849  81.7271962  42.7976540
  15.9455156  81.4907233  41.9893730  13.4371145  87.5716037  43.5959351
  12.9092507  86.8368796  43.2832588  12.9358648  88.3490713  43.3499319
  18.4163991  85.7665057  48.7126397  17.7587666  86.4564318  48.8006526
  19.2204391  86.1561489  49.0560383   8.1689873  78.2335703  45.9565962
   8.7433625  78.0110884  45.2239155   8.7560855  78.3024397  46.7094564
  17.2269450  84.1209430  46.7630339  17.7401332  84.7539422  47.2652049
  17.8770674  83.5210625  46.3973699   8.4959460  80.2640164  39.9761848
   7.6596772  80.6014850  40.2971122   8.3564230  80.1289144  39.0388984
  10.4712541  75.1076952  44.6841032   9.8176953  74.7925969  44.0597646
  10.4293015  74.4852692  45.4100855  11.5823746  85.3896247  36.5994324
  10.6750807  85.1585500  36.7985473  12.0794778  84.5933866  36.7868305
  14.4891824  94.0993754  39.5191010  13.8153523  94.4025451  40.1275968
  14.8757646  94.9022834  39.1696467  13.7050281  81.5958885  49.0088679
  12.7872842  81.8173832  48.8510367  14.1210425  81.6705196  48.1500387
  14.4885329  82.9950301  44.1391360  15.2357148  83.5071698  43.8298482
  14.7576918  82.6734354  44.9995753  12.7611979  85.4908842  41.1218314
  11.8523198  85.2067875  41.2190784  12.7907063  85.9107920  40.2621621
  17.9931246  89.1015431  44.8909481  17.5393573  88.2606341  44.9474672
  17.3625213  89.7376830  45.2284262  16.9364166  80.0307417  46.1210149
  16.1986923  79.5184803  46.4520391  17.1890939  79.5907799  45.3093426
  16.4364186  90.9391928  45.8259300  16.7287160  91.4996985  45.1071665
  16.9462806  91.2320489  46.5812459  17.0375793  72.8083669  46.7151918
  17.3434670  71.9481033  46.4277833  17.7628398  73.4001289  46.5150912
   3.3300149  83.2114356  45.1033516   3.1324549  82.6183717  44.3784583
   2.7746813  82.9066566  45.8209455  11.3096873  83.1037462  47.2228109
  11.3645483  82.1511299  47.1470586  10.4988075  83.2596901  47.7069408
  12.4588067  87.0317585  38.4606392  12.0207497  86.3153444  38.0012030
  13.1998508  87.2593700  37.8991484   9.2489233  81.7214522  44.9818488
   8.4357098  82.0208693  45.3883680   9.7448227  81.3270211  45.6992970
  11.3997811  91.7172279  46.9152753  11.3573990  91.9433125  45.9861285
  12.3160510  91.4835654  47.0638554  14.8463445  82.1856347  53.8133382
  15.2012832  82.4127820  54.6727848  15.4935576  82.5174723  53.1910637
  20.5761182  85.3074782  44.5182711  20.4379080  85.4976378  43.5903900
  20.2197400  86.0694165  44.9750762   8.7403308  79.2932878  50.5979723
   9.3802687  79.1521637  49.9002686   7.9080838  79.0067391  50.2218325
  20.6030561  87.3751309  49.5293983  21.0367068  87.2826599  50.3777037
  21.3162142  87.3508810  48.8913999   9.5163612  88.5935308  46.7114715
  10.3104210  88.0985628  46.5097290   8.8055304  88.0653171  46.3482421
  14.3358456  90.9753404  51.0627083  14.3895478  91.5444340  51.8304799
  13.4673237  91.1455289  50.6981120   5.8246375  82.7378390  42.7874468
   4.8943963  82.6762845  43.0044430   5.9203847  82.2154342  41.9911109
   5.7431924  79.2633203  45.3752710   6.0038741  80.1778536  45.2661870
   6.5649096  78.7957645  45.5249323   7.2156849  80.6770960  52.5451534
   7.8879903  80.4688322  51.8964183   6.3886636  80.4793046  52.1056767
  21.4646111  87.4175010  52.0626868  21.6582001  88.3220821  52.3086143
  21.3646729  86.9582429  52.8965453  13.1182421  77.3032901  54.5617195
  12.4710337  78.0022850  54.4681672  13.8883437  77.7369045  54.9293443
  16.5261219  87.5681753  57.6367749  16.3746726  87.3392305  56.7197832
  16.5165899  88.5252354  57.6499094  13.2946556  85.1413666  52.6214015
  14.2238616  85.2924825  52.4482982  12.8737586  85.2297686  51.7662661
  12.0934888  89.1664330  50.3912553  11.9545973  88.7983114  51.2638491
  11.3049484  89.6811969  50.2196510  12.6883040  94.2673426  41.7338089
  12.8634795  93.7961470  42.5483712  12.0015828  94.8939193  41.9619350
  13.6440103  88.5445933  47.7801390  13.3089935  88.5046703  48.6759040
  13.1444048  87.8790649  47.3071801   7.6184347  83.9513563  53.3053972
   7.4804145  83.2193802  53.9065511   8.5289270  83.8622463  53.0238159
  16.5799294  85.8901967  38.0538450  15.9628465  85.1648795  37.9571503
  16.1115783  86.6511327  37.7105524  10.2466647  83.6633522  52.7937651
  10.9566266  83.0226714  52.7524270  10.2035956  83.9146417  53.7163832
  18.2353426  90.6000875  55.7144230  18.1765972  89.9160096  55.0474813
  18.6372944  91.3419865  55.2624856   8.9595581  80.6498740  54.6133291
   8.4232938  80.1989478  55.2654887   8.3712290  80.7844649  53.8703755
   7.2544125  97.4162789  48.5077949   7.4940723  98.0481313  49.1856968
   6.4113321  97.0650829  48.7943309   8.3697840  80.1087391  37.1759754
   7.4927307  79.9876192  36.8122001   8.8455593  79.3173470  36.9238643
  18.2370833  88.5640459  53.9458210  17.3497612  88.2266381  54.0684609
  18.8069384  87.8323491  54.1826975   4.6934703  79.7854748  51.6986285
   4.6092891  79.1780417  50.9636695   3.8717409  80.2763766  51.6995781
  11.7671987  93.2241912  50.9119453  11.6942158  94.0296883  51.4238758
  11.3249380  93.4233877  50.0867475  11.5561766  92.4613682  44.4222275
  10.7729288  93.0035362  44.5160499  12.2554512  92.9787661  44.8216516
  14.8658416  78.2708311  47.0656480  15.3627116  77.5178273  46.7457550
  14.0945398  78.3072628  46.4999690  22.7188174  83.9748677  48.7074772
  22.7078050  84.8573392  48.3368705  21.8505553  83.6220228  48.5129309
  14.2270670  93.1228746  53.0677612  14.9398642  93.7576211  52.9953513
  13.7360699  93.2192612  52.2517614  15.9488197  87.0279998  44.6394904
  15.0144476  87.1481461  44.4699608  16.1264866  86.1252465  44.3754913
  11.4493385  80.4125694  46.7928165  11.0791173  79.8596735  47.4809070
  11.9452478  79.8083828  46.2403165  19.3360748  82.8697318  45.1744938
  19.8021201  83.7025309  45.1005240  19.7868249  82.4042299  45.8790196
   9.2782584  90.8723189  53.8883183   9.9792043  91.5059672  54.0412577
   8.8077699  91.2137921  53.1278822  17.4036980  89.2141139  42.1731090
  17.6796824  89.0997734  43.0824964  16.5341478  88.8158624  42.1343263
  17.3077411  75.2377905  49.2135839  16.3940491  75.4682131  49.3818046
  17.7370513  75.3216349  50.0649871  17.0783870  83.4267797  51.7135733
  16.4255320  83.6743704  51.0588186  17.4564250  82.6131935  51.3798210
  14.0391044  93.4627490  45.8163903  14.2213438  92.6449146  46.2791656
  14.8624030  93.6795182  45.3788793  14.3733209  92.3895675  43.0778952
  14.9020976  91.8788130  42.4649114  14.6361429  92.0738205  43.9424485
  13.1271443  84.1687608  58.2001770  12.4512080  84.0681737  58.8704145
  13.9499077  84.0126821  58.6637767   4.8750302  90.4059544  50.8214285
   5.4603739  89.6603232  50.9542190   4.6775140  90.7163501  51.7050949
   7.7288957  93.4410792  45.8376728   7.0599332  93.9256919  45.3540768
   7.5901827  93.6880012  46.7520106  11.8694226  95.4754535  52.4359386
  12.4212534  95.6386157  53.2008471  12.2100419  96.0658973  51.7639411
   6.8458719  77.8229685  53.0381271   6.9100045  78.6844516  52.6258669
   6.7825839  77.2103687  52.3053629   6.3210991  79.8952817  56.6854305
   6.9483030  79.5129895  57.2991829   5.4638910  79.6767019  57.0509998
  16.7205100  90.3015793  58.2908041  17.2645004  90.9145751  57.7962995
  16.1391945  90.8595371  58.8075054   3.0976534  81.7029247  42.6172660
   3.3929975  80.7939925  42.5639714   2.1964570  81.6816986  42.2953662
  15.0062613  93.4236511  49.4223068  14.8813752  92.6226250  48.9134014
  15.6641704  93.9182704  48.9337038   6.6270781  79.7785243  48.6000209
   5.9057367  80.3921211  48.4607682   7.4164037  80.3143008  48.5216854
  17.0697521  91.2245531  51.0502618  16.1227857  91.1050882  50.9780945
  17.4180294  90.3368029  51.1328880   9.4297095  77.1139670  54.8740860
   9.9531496  77.3601966  55.6367170   9.2109428  77.9459704  54.4543998
   4.8264376  79.3843344  42.7411985   4.4977082  78.5040723  42.5587091
   5.1803746  79.3291013  43.6288374  14.0743955  91.0198247  47.2506971
  13.9268917  90.0914954  47.4314541  14.8997448  91.0418338  46.7664046
   7.9406199  79.6716314  43.1087463   8.2802271  80.2002235  42.3866071
   8.3878319  80.0096720  43.8846029  17.6778076  91.8426806  48.3371843
  18.6024624  91.6369667  48.1996295  17.5093380  91.5943207  49.2461185
  10.6349640  78.0553365  52.5590531  10.2946460  77.2561178  52.9611211
   9.9288646  78.3555076  51.9867364  11.2866112  75.1402677  51.0117854
  12.1092181  74.6663155  50.8896744  11.5304175  75.9193161  51.5116540
   9.9274346  78.1690936  41.3080756  10.6482709  78.5472188  40.8044472
   9.3039650  78.8879812  41.4115734  14.0705469  78.8736085  42.2439088
  14.2869083  79.7560722  41.9427916  13.5899536  78.4822298  41.5144730
   8.8104690  81.8321798  48.8209832   8.6649271  82.1462101  49.7134114
   8.3329894  82.4506698  48.2680731  10.6701073  78.8224346  48.8690722
  10.6562642  77.9265439  48.5323020  11.3873501  78.8295010  49.5029008
  12.5227204  79.2561686  50.9143849  12.2644982  80.1778757  50.9128180
  11.9912244  78.8592121  51.6044314  17.4673393  92.3612473  43.6933935
  17.6410270  91.7958896  42.9407787  17.9602284  93.1613368  43.5113425
   3.2850352  84.3727142  51.7597494   2.7403821  85.1486950  51.8917768
   4.1629702  84.7197947  51.6016615  10.0737969  77.7038726  44.1378292
  10.1953880  76.7755372  44.3369180   9.7840011  77.7177412  43.2256608
  12.9429160  75.3893637  47.2745012  12.9650856  75.4532970  46.3196992
  13.3597219  74.5498145  47.4685518  23.3212784  85.1248896  45.3124235
  23.7643930  84.3756221  44.9143358  22.4439294  85.1159032  44.9297967
  18.4548565  91.6779238  40.7930833  19.1499470  92.2985930  41.0118148
  18.7971715  90.8274589  41.0683211   4.0716374  83.4997038  54.6527651
   3.3298110  83.6479674  55.2392281   3.7509119  83.7605304  53.7894400
  20.3539988  89.1278943  42.3218164  20.8791312  89.4666216  41.5967484
  20.2662341  88.1925958  42.1381299  12.0160037  93.0413017  54.4508041
  12.3247163  92.7962163  55.3230740  12.8135519  93.2459655  53.9626911
  12.0380649  95.1950926  46.6813417  11.5985639  94.7027305  47.3746274
  12.7888766  94.6523894  46.4405492   4.5172988  91.3862467  46.6838045
   5.3431008  91.0866239  46.3036689   4.1667040  90.6170090  47.1327834
   9.4854521  90.7388935  48.7535719   8.8634530  90.0759640  48.4537947
  10.1559388  90.7650067  48.0709367   2.7181593  89.3048794  47.6426979
   1.8813501  88.8770968  47.4610980   2.6905238  89.4981237  48.5797770
   9.5579049  79.2170723  58.3468225   9.6067204  80.0932846  57.9645994
  10.1001563  78.6748116  57.7739868  20.0433894  89.7611847  57.6269362
  19.2529438  89.7435986  57.0873861  19.8067249  90.3000140  58.3818398
  20.1631769  86.6104313  54.9402090  20.2129774  86.4454321  55.8817613
  20.0545693  85.7431572  54.5499971   9.0468028  89.2892859  42.2294179
   9.1956148  89.9728323  41.5760852   9.8534472  89.2697949  42.7443635
  17.4535532  82.5935241  56.2561397  18.3545395  82.4541706  55.9645395
  17.5283506  82.7589696  57.1959575  11.7878337  79.9702096  55.1014583
  10.9181647  80.2635662  54.8297172  12.0237817  80.5542541  55.8221847
  21.6649966  89.0301255  55.1844112  21.3734775  89.3931235  56.0207573
  21.0522097  88.3168263  55.0057444  22.8645649  86.5954134  47.7046682
  23.6992540  87.0343938  47.8684243  23.0004777  86.1192788  46.8854928
  19.9137154  84.1533869  53.6524170  20.3891276  84.3461516  52.8443021
  18.9902720  84.2093055  53.4067554   6.8020661  85.3158036  43.2355248
   6.5566703  84.4120366  43.4335458   6.9716576  85.3175187  42.2934726
  14.4917371  76.1881713  52.6180004  15.0099315  76.9242740  52.2926492
  14.1372504  76.4945706  53.4526763   6.0716309  81.0486394  40.7341410
   5.3785554  81.1230749  40.0781446   5.8268060  80.2846738  41.2562927
  14.7429965  72.6081995  48.1380900  15.0231719  71.9405184  48.7641327
  15.5280572  72.8011091  47.6255564  12.5463434  91.7840989  39.7005927
  11.9737401  92.4031176  39.2476399  13.1196227  92.3340351  40.2345849
  18.6138823  81.0299629  51.8852476  19.5656246  81.1297727  51.9064700
  18.4442274  80.2377898  52.3950560  16.6353203  78.1155213  52.0711876
  16.0403135  78.3960225  51.3758365  16.3502900  78.6049113  52.8428618
  15.7660693  92.0678139  40.8314509  16.6991367  92.0023701  41.0347385
  15.6783906  92.9034406  40.3729042  18.3948710  91.3844010  37.7918457
  18.3162342  91.0503873  38.6854214  19.2158377  91.8765778  37.7909929
  21.0926901  84.2505749  50.9994775  21.0603221  83.3121750  51.1854459
  21.7027525  84.3289786  50.2660600  12.9310232  83.1201802  37.0421979
  13.8769337  82.9908010  37.1110397  12.5524477  82.3816464  37.5191407
  21.2421390  81.0416792  51.0453058  20.7260438  80.2575249  50.8582987
  22.1261338  80.7135509  51.2099578  18.9032117  74.7857808  47.0048871
  18.7056938  74.4772896  47.8892203  19.5131822  75.5119447  47.1346801
  26.9103451  85.3121756  50.1400812  27.6406840  85.0507044  50.7008515
  26.3010397  84.5750478  50.1802880  24.9918748  83.4529618  50.7375263
  24.2651912  83.3185583  50.1291755  24.5766035  83.7606447  51.5431981
  12.8148925  87.1719548  58.5022636  13.7351934  87.3498147  58.6962683
  12.7798508  86.2275593  58.3502335  11.1153149  81.0451778  36.9776864
  10.2084605  80.7484891  37.0539578  11.3929130  80.7481596  36.1111151
   2.0331090  82.3658142  47.4275911   1.7133874  81.5123450  47.1350285
   1.4864518  82.5806720  48.1833878   5.8110997  85.0820583  51.1445417
   6.0297007  86.0137691  51.1633451   6.2236771  84.7228557  51.9300221
  12.7315215  75.5888668  43.1321106  11.9215943  75.2435753  43.5076352
  13.4199632  75.2796212  43.7208717  14.6605763  74.6666715  44.7545402
  15.2136802  75.0862168  45.4135425  14.8975850  73.7402463  44.7968358
  10.6838862  80.6553789  60.5348166  10.5835589  81.6048145  60.4660257
  10.4660405  80.3272027  59.6624236   9.8851934  77.9038714  37.1188844
  10.7471098  78.2293612  37.3784661  10.0702278  77.1170209  36.6061909
   1.9019350  85.9861053  49.3969032   1.2082821  85.5715006  48.8838987
   2.6492341  86.0281590  48.8002451  18.0384570  76.7767240  44.2624067
  17.4583239  77.4352044  43.8802119  17.7720503  75.9544585  43.8511484
  16.4888137  76.1772298  46.4645387  16.9887915  76.2888832  45.6559706
  17.1323745  75.8733351  47.1046195  10.5470133  84.0850927  59.3513228
  10.0637214  84.8851287  59.5577117  10.6331072  84.0958872  58.3980672
   3.8156092  85.9179307  47.2735047   3.7926780  86.0166994  46.3216930
   4.1256729  86.7644458  47.5952213   6.4743470  87.9755462  51.3881662
   7.4286724  87.9439404  51.3211593   6.2755994  87.5146086  52.2031888
   7.0642852  86.5456578  53.9552459   7.8835741  87.0400657  53.9787297
   7.3379660  85.6288546  53.9270027  16.8209448  78.9367330  43.3180415
  15.9335303  79.2216981  43.1000610  17.2363437  78.7761094  42.4707692
  20.1723985  78.9613851  47.0334754  20.9484375  79.4510304  47.3059371
  19.4472119  79.3871906  47.4906624  22.6096543  79.6741471  48.0908695
  23.2041034  79.4337207  47.3802003  22.6823127  78.9548601  48.7182231
   4.8293699  93.5175082  48.4051860   4.6948167  92.7575482  47.8389858
   4.4125761  94.2415981  47.9380648  15.9652662  88.7012005  37.4128435
  16.6688512  88.9062008  38.0286090  15.2415311  89.2688767  37.6777518
  16.7950472  84.4521866  43.5330705  16.7385674  84.9090418  42.6938337
  17.3478815  83.6912551  43.3553548  20.6055278  80.2411598  44.3580825
  20.3492212  79.8408234  45.1889032  19.9808146  80.9555392  44.2330964
  24.9167616  82.9807671  46.8652116  24.3567174  83.0500861  47.6383678
  24.3111119  82.8048656  46.1451612   7.9862825  94.4144399  48.6170302
   7.8695209  95.3589831  48.5148992   7.1655271  94.1117960  49.0056101
  17.8739359  89.1394534  39.4626895  18.7084963  88.7075733  39.2804370
  17.7123702  88.9676548  40.3903789  17.5285251  85.6426648  40.8283234
  17.4734055  85.4770919  39.8871678  16.9031307  86.3502681  40.9845424
   2.3177766  80.8794712  54.6544656   2.9636630  80.3693666  55.1431882
   2.1094918  81.6163394  55.2288082  14.8431159  87.9475559  60.1536797
  15.7122318  88.1216212  59.7923432  14.3637910  88.7669976  60.0312526
  10.8381377  75.1434757  40.4068553  10.8260047  76.0876597  40.5636823
  11.7304799  74.9604902  40.1128014   9.0117339  95.0672660  51.8326231
   9.9144586  95.0996271  52.1492726   8.7854709  94.1373111  51.8472566
  10.7670941  93.8203647  48.4936309   9.8166572  93.8205509  48.3800682
  11.0703427  93.0736382  47.9772344  14.6533496  71.7377533  44.6614489
  13.8865892  71.1836020  44.8071172  15.0644201  71.8099402  45.5228641
   6.6575257  78.0262329  58.7519671   7.5206719  77.6699134  58.9622995
   6.0840668  77.6876224  59.4395075  26.5023634  99.6564185  49.5582072
  27.1402044  99.5370933  48.8545412  26.3844477 100.6045029  49.6170024
  23.3113341  99.6091614  49.4943596  22.9731852  99.4932678  48.6064131
  24.1803109  99.2082779  49.4744603  19.1700156 101.4627090  45.4840487
  18.6065021 101.3717027  44.7156775  19.0552551 100.6426994  45.9642980
  23.7933124 100.7626465  55.4529802  23.7821764 100.3679264  54.5810306
  23.9553763 100.0292538  56.0463573  16.7164588 102.9578282  48.3224708
  17.5085880 102.6169106  47.9071007  16.9561238 103.0673257  49.2426861
  24.7499715 105.1298058  40.7954952  24.0987695 105.7152138  40.4088966
  25.5444078 105.6604253  40.8549990  18.6755342 102.2187195  41.1942087
  19.4486218 101.6716182  41.0554962  19.0280741 103.0831444  41.4056548
  20.5140385 103.5463577  54.4008986  20.2230251 104.4509208  54.2855652
  21.1497369 103.5880105  55.1153055  21.4396592 100.9240426  50.9910346
  22.0360164 100.6996448  50.2767308  21.4971563 100.1825171  51.5935793
  21.0121620  98.3779861  38.8260536  21.2647141  97.8561382  38.0643999
  20.0746179  98.2146006  38.9287220  26.0564903  97.3815639  46.6335280
  26.8427992  96.9635062  46.2825697  26.3203607  98.2861731  46.8016928
  26.2274980 102.8188490  41.3323937  25.5920813 102.8923116  42.0444841
  25.8972387 103.4082088  40.6543016  31.4573330  97.3190872  47.5368258
  32.1898502  96.7490089  47.7706088  30.7012686  96.9312473  47.9774764
  20.7317909 100.2807967  41.0284911  20.6154167  99.6052870  41.6965996
  20.8420169  99.7940341  40.2117064  23.0749450  99.7418114  44.7331601
  22.7107657  99.2148735  45.4444522  23.9316566  99.3516583  44.5598086
  28.9798750  91.0312447  51.9962867  28.6482075  91.9007858  51.7724082
  28.3844364  90.7148731  52.6756897  22.7154937  94.7708014  39.7292949
  22.8829339  95.6388250  40.0963420  22.5252106  94.9335295  38.8054238
  25.4730270 103.2324993  51.3958780  25.1730993 104.1350031  51.2874587
  25.1281329 102.9657176  52.2479932  18.9242751  99.6838789  47.4295484
  17.9993248  99.5515003  47.6373176  19.1727165 100.4633009  47.9265426
  28.8727414  95.7507533  49.0756217  27.9644291  95.6822941  48.7814978
  28.8215009  96.2279478  49.9038042  22.6944158  97.2265671  40.7139616
  22.5743783  97.6722722  41.5525096  21.9996746  97.5750989  40.1553154
  16.2851562  99.3272063  48.2639273  16.4143944  99.5806542  49.1778685
  15.6049014  99.9199771  47.9443928  20.4551050 109.9969313  44.3629747
  20.3775079 110.9477138  44.4418228  19.8512693 109.6515185  45.0204674
  22.9468279  97.1697178  57.0191114  22.1701613  97.7291098  57.0093979
  23.5858842  97.6553961  57.5405984  30.7389060  93.9523971  50.8534091
  30.0963440  94.2456504  50.2073885  30.2343989  93.8376891  51.6587287
  28.3929224  97.6987144  41.5419950  29.3047080  97.9314531  41.3667648
  27.8838871  98.2824189  40.9795029  21.2014652  99.9782632  56.5809081
  21.9429336 100.5167676  56.3043905  20.4951637 100.6048920  56.7380633
  26.6769991 102.1211772  55.1781243  27.0853347 101.6794183  54.4335875
  25.9547253 101.5464400  55.4315436  23.0301061  97.0584379  52.5514800
  23.8762257  97.4823792  52.6949449  22.9699699  96.4018003  53.2453363
  26.9998806 102.6812963  48.9333532  26.3707668 102.8458677  48.2309599
  26.6124468 103.0954572  49.7044496  30.8788038 103.6167401  46.2877895
  30.1939076 103.9966302  45.7374929  30.9631887 104.2262727  47.0209843
  26.1800507  94.7188747  54.2095973  25.9361439  95.4730808  53.6730249
  26.4560437  95.0974095  55.0443220  28.1338969 101.2627360  52.8873239
  28.3455865 101.9059120  52.2107620  28.0868718 100.4289676  52.4195169
  25.7365198  93.8745180  49.7909811  24.8749677  94.1726434  50.0826549
  25.7627633  94.0915579  48.8590844  22.5526768 102.4187371  46.1983617
  23.0165113 102.6975074  45.4088239  22.2883566 101.5170815  46.0156707
  19.4450849 101.9658852  49.1363380  20.0152206 102.3946121  48.4980864
  20.0358961 101.6841437  49.8347566  21.4895654  98.5410523  43.0073182
  22.1919697  98.9931567  43.4747108  21.1576282  97.8994342  43.6353075
  19.9376015  97.1322280  57.3824391  19.3074676  97.8138561  57.6159788
  19.8312103  97.0205361  56.4377529  15.2320988  96.7994076  48.3090315
  14.4420042  97.0551604  47.8330426  15.7232235  97.6142414  48.4142356
  29.2484797 104.1399315  51.0595596  30.0702241 103.7379502  50.7778278
  29.2447200 104.0367549  52.0111712  17.1835733  97.1638655  45.2673792
  16.3866897  97.2757349  45.7857288  16.9561325  97.5025307  44.4014683
  23.0141401 103.6883358  53.2156307  23.0785833 104.1503766  54.0514479
  22.3052325 103.0580723  53.3438617  13.5158691  97.0524566  50.7405306
  13.7666729  97.9371576  51.0062882  14.0518239  96.8729168  49.9680398
  37.3390790 100.4838064  47.4080568  36.5854499  99.9145462  47.2524572
  37.4738332 100.4500728  48.3551202  22.7289419 105.3551466  43.0835287
  22.5935093 106.2003002  43.5120135  23.2699231 105.5570743  42.3201221
  19.2156758  91.4343046  59.7449642  18.8223704  90.8809244  60.4197286
  20.0322899  91.7453624  60.1356160  16.1818816 102.8726904  43.6563212
  16.6943337 103.6670154  43.8068777  16.8341529 102.1753194  43.5896814
  17.9913701 105.9892660  45.7385965  18.1680329 106.9110625  45.5506949
  18.7870534 105.6751079  46.1680345  22.1324719  92.8500925  57.3369899
  22.8734433  93.4508078  57.2574361  22.3642642  92.1078563  56.7787941
  17.2766057  98.0357292  55.6148128  17.1619572  97.1342549  55.9155227
  16.4210575  98.2820989  55.2632945  24.3557895 105.9775032  57.2135629
  23.9121749 105.1911411  56.8956534  25.0175109 106.1654183  56.5479520
  19.1145016 107.5070834  51.7396308  19.6652441 107.3787897  50.9673302
  18.2756492 107.8065723  51.3891200  26.4539133 106.2577832  55.2417030
  26.4357608 107.0786713  54.7497300  27.3759053 106.1331908  55.4667172
  22.9112187 103.7721962  56.0840539  23.4440524 103.0110250  55.8539847
  22.3826268 103.4795614  56.8264693  26.0781882  88.8782028  51.6134180
  25.7346152  89.7683669  51.5373291  26.4460845  88.6883685  50.7503765
  14.1467733 101.2015558  44.4322783  14.9842955 101.6112567  44.2156490
  14.3246000 100.2615000  44.4022976  26.0432165  98.8690639  40.1206616
  25.5278788  99.6395243  40.3595003  25.7709473  98.1955775  40.7439677
  23.6279276  93.7140340  45.1791854  22.7720872  93.3247190  44.9997493
  24.0406228  93.7932300  44.3191639  25.1578423  91.2486683  49.5783414
  24.6543218  91.2116818  48.7651219  25.4509029  92.1579426  49.6380070
  21.4021308  91.3325413  48.5849595  22.2674305  91.1368221  48.2255485
  21.4698817  91.1035764  49.5118952  31.0166439 101.6222993  42.0559789
  30.2395882 101.2834153  41.6114951  31.6957920 101.6275617  41.3814754
  25.8318468  96.7417731  41.9466397  25.5268604  97.0563880  42.7976540
  26.7848910  96.8199151  41.9893730  24.2764900 102.9007954  43.5959351
  23.7486261 102.1660714  43.2832588  23.7752403 103.6782631  43.3499319
  29.2557746 101.0956975  48.7126397  28.5981420 101.7856236  48.8006526
  30.0598145 101.4853407  49.0560383  19.0083627  93.5627621  45.9565962
  19.5827379  93.3402802  45.2239155  19.5954610  93.6316315  46.7094564
  28.0663205  99.4501347  46.7630339  28.5795086 100.0831339  47.2652049
  28.7164429  98.8502543  46.3973699  19.3353215  95.5932082  39.9761848
  18.4990527  95.9306768  40.2971122  19.1957984  95.4581061  39.0388984
  21.3106295  90.4368869  44.6841032  20.6570708  90.1217887  44.0597646
  21.2686769  89.8144610  45.4100855  22.4217500 100.7188165  36.5994324
  21.5144562 100.4877418  36.7985473  22.9188532  99.9225784  36.7868305
  25.3285579 109.4285672  39.5191010  24.6547278 109.7317368  40.1275968
  25.7151401 110.2314752  39.1696467  24.5444036  96.9250803  49.0088679
  23.6266597  97.1465750  48.8510367  24.9604179  96.9997113  48.1500387
  25.3279083  98.3242219  44.1391360  26.0750902  98.8363616  43.8298482
  25.5970673  98.0026271  44.9995753  23.6005733 100.8200759  41.1218314
  22.6916953 100.5359792  41.2190784  23.6300817 101.2399838  40.2621621
  28.8325001 104.4307349  44.8909481  28.3787328 103.5898259  44.9474672
  28.2018968 105.0668747  45.2284262  27.7757920  95.3599335  46.1210149
  27.0380677  94.8476721  46.4520391  28.0284694  94.9199717  45.3093426
  27.2757940 106.2683846  45.8259300  27.5680915 106.8288903  45.1071665
  27.7856561 106.5612407  46.5812459  27.8769548  88.1375587  46.7151918
  28.1828425  87.2772950  46.4277833  28.6022153  88.7293207  46.5150912
  14.1693904  98.5406274  45.1033516  13.9718304  97.9475634  44.3784583
  13.6140568  98.2358484  45.8209455  22.1490628  98.4329380  47.2228109
  22.2039237  97.4803216  47.1470586  21.3381830  98.5888819  47.7069408
  23.2981821 102.3609503  38.4606392  22.8601251 101.6445362  38.0012030
  24.0392262 102.5885618  37.8991484  20.0882987  97.0506440  44.9818488
  19.2750853  97.3500610  45.3883680  20.5841982  96.6562129  45.6992970
  22.2391565 107.0464197  46.9152753  22.1967744 107.2725043  45.9861285
  23.1554264 106.8127571  47.0638554  25.6857199  97.5148264  53.8133382
  26.0406587  97.7419737  54.6727848  26.3329330  97.8466641  53.1910637
  31.4154936 100.6366700  44.5182711  31.2772835 100.8268296  43.5903900
  31.0591155 101.3986083  44.9750762  19.5797062  94.6224795  50.5979723
  20.2196442  94.4813554  49.9002686  18.7474593  94.3359309  50.2218325
  31.4424316 102.7043227  49.5293983  31.8760822 102.6118516  50.3777037
  32.1555896 102.6800728  48.8913999  20.3557366 103.9227226  46.7114715
  21.1497965 103.4277546  46.5097290  19.6449058 103.3945089  46.3482421
  25.1752211 106.3045321  51.0627083  25.2289233 106.8736258  51.8304799
  24.3066992 106.4747206  50.6981120  16.6640130  98.0670307  42.7874468
  15.7337718  98.0054763  43.0044430  16.7597602  97.5446260  41.9911109
  16.5825679  94.5925120  45.3752710  16.8432496  95.5070453  45.2661870
  17.4042851  94.1249563  45.5249323  18.0550604  96.0062877  52.5451534
  18.7273657  95.7980240  51.8964183  17.2280390  95.8084963  52.1056767
  32.3039865 102.7466928  52.0626868  32.4975755 103.6512738  52.3086143
  32.2040483 102.2874347  52.8965453  23.9576176  92.6324818  54.5617195
  23.3104091  93.3314768  54.4681672  24.7277191  93.0660962  54.9293443
  27.3654974 102.8973671  57.6367749  27.2140480 102.6684222  56.7197832
  27.3559653 103.8544272  57.6499094  24.1340310 100.4705583  52.6214015
  25.0632370 100.6216743  52.4482982  23.7131340 100.5589604  51.7662661
  22.9328642 104.4956248  50.3912553  22.7939728 104.1275032  51.2638491
  22.1443238 105.0103887  50.2196510  23.5276794 109.5965344  41.7338089
  23.7028550 109.1253387  42.5483712  22.8409582 110.2231110  41.9619350
  24.4833857 103.8737850  47.7801390  24.1483690 103.8338620  48.6759040
  23.9837803 103.2082566  47.3071801  18.4578101  99.2805480  53.3053972
  18.3197899  98.5485719  53.9065511  19.3683025  99.1914380  53.0238159
  27.4193049 101.2193885  38.0538450  26.8022220 100.4940713  37.9571503
  26.9509537 101.9803245  37.7105524  21.0860402  98.9925440  52.7937651
  21.7960020  98.3518632  52.7524270  21.0429710  99.2438335  53.7163832
  29.0747181 105.9292793  55.7144230  29.0159727 105.2452013  55.0474813
  29.4766699 106.6711783  55.2624856  19.7989336  95.9790658  54.6133291
  19.2626693  95.5281396  55.2654887  19.2106044  96.1136566  53.8703755
  19.2091595  95.4379309  37.1759754  18.3321061  95.3168110  36.8122001
  19.6849348  94.6465387  36.9238643  29.0764588 103.8932377  53.9458210
  28.1891367 103.5558299  54.0684609  29.6463139 103.1615408  54.1826975
  10.7293735 100.2256469  47.2701261  11.4164775  99.9118199  46.6822277
  10.5741864 101.1297833  46.9968513  15.5328457  95.1146665  51.6986285
  15.4486646  94.5072335  50.9636695  14.7111163  95.6055684  51.6995781
  22.6065741 108.5533829  50.9119453  22.5335913 109.3588801  51.4238758
  22.1643134 108.7525795  50.0867475  22.3955521 107.7905599  44.4222275
  21.6123043 108.3327280  44.5160499  23.0948266 108.3079579  44.8216516
  25.7052171  93.6000229  47.0656480  26.2020870  92.8470191  46.7457550
  24.9339152  93.6364545  46.4999690  33.5581928  99.3040594  48.7074772
  33.5471805 100.1865310  48.3368705  32.6899308  98.9512145  48.5129309
  25.0664425 108.4520663  53.0677612  25.7792397 109.0868128  52.9953513
  24.5754453 108.5484529  52.2517614  26.7881952 102.3571916  44.6394904
  25.8538230 102.4773379  44.4699608  26.9658620 101.4544383  44.3754913
  22.2887140  95.7417612  46.7928165  21.9184927  95.1888652  47.4809070
  22.7846232  95.1375745  46.2403165  30.1754503  98.1989235  45.1744938
  30.6414955  99.0317227  45.1005240  30.6262003  97.7334217  45.8790196
  20.1176338 106.2015107  53.8883183  20.8185798 106.8351590  54.0412577
  19.6471453 106.5429838  53.1278822  28.2430734 104.5433057  42.1731090
  28.5190578 104.4289651  43.0824964  27.3735233 104.1450541  42.1343263
  28.1471166  90.5669822  49.2135839  27.2334246  90.7974049  49.3818046
  28.5764267  90.6508266  50.0649871  27.9177624  98.7559714  51.7135733
  27.2649074  99.0035622  51.0588186  28.2958004  97.9423852  51.3798210
  24.8784798 108.7919407  45.8163903  25.0607193 107.9741063  46.2791656
  25.7017784 109.0087100  45.3788793  25.2126964 107.7187593  43.0778952
  25.7414730 107.2080047  42.4649114  25.4755183 107.4030123  43.9424485
  23.9665197  99.4979525  58.2001770  23.2905834  99.3973655  58.8704145
  24.7892831  99.3418739  58.6637767  15.7144056 105.7351462  50.8214285
  16.2997493 104.9895150  50.9542190  15.5168895 106.0455419  51.7050949
  18.5682712 108.7702709  45.8376728  17.8993087 109.2548837  45.3540768
  18.4295581 109.0171930  46.7520106  10.3061711  98.3057062  49.5418729
  10.3445811  97.7720653  50.3355847   9.8002004  97.7792268  48.9229706
  22.7087980 110.8046453  52.4359386  23.2606288 110.9678074  53.2008471
  23.0494174 111.3950891  51.7639411  17.6852473  93.1521603  53.0381271
  17.7493800  94.0136433  52.6258669  17.6219594  92.5395604  52.3053629
  17.1604746  95.2244735  56.6854305  17.7876785  94.8421812  57.2991829
  16.3032665  95.0058937  57.0509998  27.5598854 105.6307710  58.2908041
  28.1038758 106.2437669  57.7962995  26.9785699 106.1887289  58.8075054
  13.9370289  97.0321164  42.6172660  14.2323730  96.1231843  42.5639714
  13.0358324  97.0108904  42.2953662  25.8456367 108.7528428  49.4223068
  25.7207507 107.9518168  48.9134014  26.5035459 109.2474622  48.9337038
  17.4664536  95.1077161  48.6000209  16.7451121  95.7213129  48.4607682
  18.2557791  95.6434926  48.5216854  27.9091276 106.5537448  51.0502618
  26.9621611 106.4342800  50.9780945  28.2574049 105.6659946  51.1328880
  20.2690849  92.4431587  54.8740860  20.7925251  92.6893884  55.6367170
  20.0503182  93.2751622  54.4543998  15.6658130  94.7135262  42.7411985
  15.3370836  93.8332641  42.5587091  16.0197501  94.6582931  43.6288374
  24.9137709 106.3490165  47.2506971  24.7662672 105.4206872  47.4314541
  25.7391203 106.3710255  46.7664046  18.7799953  95.0008232  43.1087463
  19.1196026  95.5294153  42.3866071  19.2272074  95.3388638  43.8846029
  28.5171831 107.1718723  48.3371843  29.4418378 106.9661585  48.1996295
  28.3487134 106.9235125  49.2461185  21.4743394  93.3845282  52.5590531
  21.1340215  92.5853095  52.9611211  20.7682400  93.6846993  51.9867364
  22.1259866  90.4694595  51.0117854  22.9485935  89.9955073  50.8896744
  22.3697930  91.2485079  51.5116540  20.7668101  93.4982853  41.3080756
  21.4876463  93.8764106  40.8044472  20.1433405  94.2171730  41.4115734
  24.9099223  94.2028002  42.2439088  25.1262838  95.0852640  41.9427916
  24.4293291  93.8114216  41.5144730  19.6498445  97.1613715  48.8209832
  19.5043026  97.4754019  49.7134114  19.1723648  97.7798616  48.2680731
  21.5094828  94.1516263  48.8690722  21.4956396  93.2557357  48.5323020
  22.2267256  94.1586927  49.5029008  23.3620958  94.5853604  50.9143849
  23.1038736  95.5070674  50.9128180  22.8305999  94.1884038  51.6044314
  28.3067147 107.6904391  43.6933935  28.4804025 107.1250813  42.9407787
  28.7996038 108.4905286  43.5113425  14.1244107  99.7019060  51.7597494
  13.5797575 100.4778868  51.8917768  15.0023457 100.0489864  51.6016615
  20.9131724  93.0330644  44.1378292  21.0347635  92.1047290  44.3369180
  20.6233766  93.0469330  43.2256608  23.7822914  90.7185554  47.2745012
  23.8044611  90.7824887  46.3196992  24.1990973  89.8790063  47.4685518
  34.1606538 100.4540814  45.3124235  34.6037684  99.7048139  44.9143358
  33.2833049 100.4450950  44.9297967  29.2942320 107.0071155  40.7930833
  29.9893224 107.6277848  41.0118148  29.6365470 106.1566506  41.0683211
  14.9110129  98.8288956  54.6527651  14.1691865  98.9771592  55.2392281
  14.5902873  99.0897222  53.7894400  31.1933743 104.4570861  42.3218164
  31.7185067 104.7958133  41.5967484  31.1056095 103.5217876  42.1381299
  22.8553791 108.3704934  54.4508041  23.1640918 108.1254081  55.3230740
  23.6529273 108.5751573  53.9626911  22.8774404 110.5242844  46.6813417
  22.4379394 110.0319223  47.3746274  23.6282520 109.9815812  46.4405492
  15.3566742 106.7154385  46.6838045  16.1824762 106.4158157  46.3036689
  15.0060794 105.9462007  47.1327834  20.3248276 106.0680853  48.7535719
  19.7028285 105.4051558  48.4537947  20.9953143 106.0941985  48.0709367
  13.5575348 104.6340711  47.6426979  12.7207256 104.2062886  47.4610980
  13.5298993 104.8273155  48.5797770  20.3972803  94.5462641  58.3468225
  20.4460959  95.4224764  57.9645994  20.9395317  94.0040034  57.7739868
  30.8827649 105.0903764  57.6269362  30.0923193 105.0727903  57.0873861
  30.6461003 105.6292058  58.3818398  31.0025524 101.9396231  54.9402090
  31.0523529 101.7746238  55.8817613  30.8939447 101.0723490  54.5499971
  19.8861783 104.6184776  42.2294179  20.0349903 105.3020241  41.5760852
  20.6928226 104.5989867  42.7443635  28.2929286  97.9227159  56.2561397
  29.1939149  97.7833624  55.9645395  28.3677261  98.0881614  57.1959575
  22.6272092  95.2994014  55.1014583  21.7575401  95.5927580  54.8297172
  22.8631572  95.8834459  55.8221847  32.5043721 104.3593172  55.1844112
  32.2128529 104.7223153  56.0207573  31.8915852 103.6460181  55.0057444
  33.7039403 101.9246052  47.7046682  34.5386294 102.3635856  47.8684243
  33.8398532 101.4484705  46.8854928  30.7530909  99.4825787  53.6524170
  31.2285031  99.6753433  52.8443021  29.8296474  99.5384973  53.4067554
  17.6414416 100.6449954  43.2355248  17.3960457  99.7412284  43.4335458
  17.8110330 100.6467105  42.2934726  25.3311125  91.5173630  52.6180004
  25.8493069  92.2534657  52.2926492  24.9766258  91.8237624  53.4526763
  16.9110063  96.3778312  40.7341410  16.2179308  96.4522667  40.0781446
  16.6661815  95.6138655  41.2562927  25.5823720  87.9373913  48.1380900
  25.8625473  87.2697102  48.7641327  26.3674327  88.1303009  47.6255564
  23.3857188 107.1132907  39.7005927  22.8131155 107.7323094  39.2476399
  23.9589982 107.6632269  40.2345849  29.4532578  96.3591547  51.8852476
  30.4050001  96.4589645  51.9064700  29.2836028  95.5669816  52.3950560
  27.4746957  93.4447130  52.0711876  26.8796890  93.7252143  51.3758365
  27.1896654  93.9341031  52.8428618  26.6054448 107.3970057  40.8314509
  27.5385121 107.3315619  41.0347385  26.5177661 108.2326324  40.3729042
  29.2342465 106.7135927  37.7918457  29.1556096 106.3795791  38.6854214
  30.0552131 107.2057695  37.7909929  31.9320656  99.5797667  50.9994775
  31.8996976  98.6413667  51.1854459  32.5421279  99.6581703  50.2660600
  23.7703987  98.4493720  37.0421979  24.7163091  98.3199928  37.1110397
  23.3918232  97.7108382  37.5191407  32.0815144  96.3708710  51.0453058
  31.5654193  95.5867167  50.8582987  32.9655093  96.0427427  51.2099578
  29.7425871  90.1149726  47.0048871  29.5450692  89.8064814  47.8892203
  30.3525577  90.8411365  47.1346801  37.7497206 100.6413674  50.1400812
  38.4800594 100.3798962  50.7008515  37.1404151  99.9042395  50.1802880
  35.8312503  98.7821536  50.7375263  35.1045666  98.6477501  50.1291755
  35.4159790  99.0898365  51.5431981  23.6542679 102.5011466  58.5022636
  24.5745689 102.6790065  58.6962683  23.6192262 101.5567511  58.3502335
  21.9546904  96.3743696  36.9776864  21.0478359  96.0776809  37.0539578
  22.2322885  96.0773514  36.1111151  12.8724844  97.6950059  47.4275911
  12.5527628  96.8415368  47.1350285  12.3258272  97.9098638  48.1833878
  16.6504752 100.4112500  51.1445417  16.8690761 101.3429608  51.1633451
  17.0630525 100.0520475  51.9300221  23.5708969  90.9180586  43.1321106
  22.7609698  90.5727671  43.5076352  24.2593386  90.6088129  43.7208717
  25.4999518  89.9958633  44.7545402  26.0530556  90.4154086  45.4135425
  25.7369604  89.0694381  44.7968358  21.5232617  95.9845706  60.5348166
  21.4229344  96.9340063  60.4660257  21.3054159  95.6563945  59.6624236
  20.7245688  93.2330631  37.1188844  21.5864852  93.5585530  37.3784661
  20.9096033  92.4462127  36.6061909  12.7413104 101.3152971  49.3969032
  12.0476576 100.9006924  48.8838987  13.4886095 101.3573507  48.8002451
  28.8778325  92.1059158  44.2624067  28.2976994  92.7643962  43.8802119
  28.6114258  91.2836502  43.8511484  27.3281891  91.5064215  46.4645387
  27.8281670  91.6180750  45.6559706  27.9717499  91.2025268  47.1046195
  21.3863887  99.4142845  59.3513228  20.9030969 100.2143205  59.5577117
  21.4724826  99.4250790  58.3980672  14.6549847 101.2471225  47.2735047
  14.6320535 101.3458912  46.3216930  14.9650483 102.0936376  47.5952213
  17.3137225 103.3047380  51.3881662  18.2680478 103.2731322  51.3211593
  17.1149748 102.8438003  52.2031888  17.9036607 101.8748496  53.9552459
  18.7229496 102.3692574  53.9787297  18.1773414 100.9580464  53.9270027
  27.6603203  94.2659248  43.3180415  26.7729058  94.5508899  43.1000610
  28.0757192  94.1053011  42.4707692  31.0117739  94.2905769  47.0334754
  31.7878129  94.7802222  47.3059371  30.2865873  94.7163823  47.4906624
  33.4490298  95.0033388  48.0908695  34.0434788  94.7629124  47.3802003
  33.5216881  94.2840519  48.7182231  15.6687453 108.8466999  48.4051860
  15.5341921 108.0867400  47.8389858  15.2519516 109.5707899  47.9380648
  26.8046416 104.0303923  37.4128435  27.5082266 104.2353925  38.0286090
  26.0809065 104.5980685  37.6777518  27.6344227  99.7813784  43.5330705
  27.5779428 100.2382335  42.6938337  28.1872569  99.0204469  43.3553548
  31.4449033  95.5703516  44.3580825  31.1885967  95.1700152  45.1889032
  30.8201901  96.2847310  44.2330964  35.7561370  98.3099589  46.8652116
  35.1960928  98.3792778  47.6383678  35.1504874  98.1340574  46.1451612
  18.8256579 109.7436316  48.6170302  18.7088963 110.6881749  48.5148992
  18.0049025 109.4409878  49.0056101  28.7133114 104.4686452  39.4626895
  29.5478718 104.0367650  39.2804370  28.5517457 104.2968466  40.3903789
  28.3679006 100.9718565  40.8283234  28.3127810 100.8062837  39.8871678
  27.7425061 101.6794598  40.9845424  13.1571521  96.2086630  54.6544656
  13.8030385  95.6985584  55.1431882  12.9488672  96.9455311  55.2288082
  25.6824913 103.2767477  60.1536797  26.5516073 103.4508129  59.7923432
  25.2031665 104.0961894  60.0312526  21.6775131  90.4726674  40.4068553
  21.6653801  91.4168514  40.5636823  22.5698553  90.2896820  40.1128014
  19.8511093 110.3964578  51.8326231  20.7538340 110.4288188  52.1492726
  19.6248463 109.4665029  51.8472566  21.6064695 109.1495565  48.4936309
  20.6560326 109.1497426  48.3800682  21.9097181 108.4028299  47.9772344
  25.4927251  87.0669451  44.6614489  24.7259647  86.5127938  44.8071172
  25.9037956  87.1391320  45.5228641  17.4969012  93.3554247  58.7519671
  18.3600473  92.9991052  58.9622995  16.9234423  93.0168142  59.4395075
  37.3417389 114.9856103  49.5582072  37.9795799 114.8662850  48.8545412
  37.2238232 115.9336947  49.6170024  34.1507095 114.9383531  49.4943596
  33.8125607 114.8224596  48.6064131  35.0196863 114.5374696  49.4744603
  34.6326878 116.0918383  55.4529802  34.6215519 115.6971181  54.5810306
  34.7947518 115.3584456  56.0463573  31.8515375 113.7071779  38.8260536
  32.1040895 113.1853300  38.0643999  30.9139934 113.5437924  38.9287220
  36.8958657 112.7107557  46.6335280  37.6821747 112.2926980  46.2825697
  37.1597362 113.6153649  46.8016928  42.2967084 112.6482790  47.5368258
  43.0292256 112.0782007  47.7706088  41.5406440 112.2604391  47.9774764
  33.9143204 115.0710032  44.7331601  33.5501411 114.5440653  45.4444522
  34.7710320 114.6808501  44.5598086  39.8192505 106.3604364  51.9962867
  39.4875830 107.2299775  51.7724082  39.2238118 106.0440648  52.6756897
  33.5548691 110.0999931  39.7292949  33.7223093 110.9680168  40.0963420
  33.3645860 110.2627213  38.8054238  39.7121168 111.0799450  49.0756217
  38.8038045 111.0114859  48.7814978  39.6608764 111.5571395  49.9038042
  33.5337912 112.5557589  40.7139616  33.4137537 113.0014640  41.5525096
  32.8390500 112.9042906  40.1553154  33.7862034 112.4989096  57.0191114
  33.0095368 113.0583016  57.0093979  34.4252597 112.9845879  57.5405984
  41.5782815 109.2815889  50.8534091  40.9357195 109.5748422  50.2073885
  41.0737743 109.1668809  51.6587287  39.2322978 113.0279062  41.5419950
  40.1440834 113.2606449  41.3667648  38.7232625 113.6116106  40.9795029
  37.5163746 117.4503690  55.1781243  37.9247102 117.0086100  54.4335875
  36.7941007 116.8756317  55.4315436  33.8694816 112.3876297  52.5514800
  34.7156011 112.8115710  52.6949449  33.8093454 111.7309921  53.2453363
  37.0194261 110.0480665  54.2095973  36.7755193 110.8022725  53.6730249
  37.2954192 110.4266013  55.0443220  38.9732724 116.5919277  52.8873239
  39.1849619 117.2351037  52.2107620  38.9262472 115.7581594  52.4195169
  36.5758953 109.2037098  49.7909811  35.7143432 109.5018352  50.0826549
  36.6021388 109.4207497  48.8590844  32.3289408 113.8702441  43.0073182
  33.0313452 114.3223485  43.4747108  31.9970037 113.2286260  43.6353075
  30.7769770 112.4614198  57.3824391  30.1468431 113.1430478  57.6159788
  30.6705858 112.3497279  56.4377529  26.0714742 112.1285994  48.3090315
  25.2813796 112.3843522  47.8330426  26.5625990 112.9434331  48.4142356
  28.0229488 112.4930573  45.2673792  27.2260651 112.6049267  45.7857288
  27.7955080 112.8317225  44.4014683  48.1784545 115.8129981  47.4080568
  47.4248253 115.2437379  47.2524572  48.3132086 115.7792646  48.3551202
  30.0550513 106.7634963  59.7449642  29.6617458 106.2101162  60.4197286
  30.8716653 107.0745542  60.1356160  32.9718474 108.1792842  57.3369899
  33.7128187 108.7799996  57.2574361  33.2036396 107.4370480  56.7787941
  28.1159812 113.3649210  55.6148128  28.0013327 112.4634467  55.9155227
  27.2604329 113.6112906  55.2632945  36.9175637 104.2073945  51.6134180
  36.5739906 105.0975587  51.5373291  37.2854599 104.0175603  50.7503765
  36.8825919 114.1982557  40.1206616  36.3672543 114.9687161  40.3595003
  36.6103228 113.5247693  40.7439677  34.4673030 109.0432257  45.1791854
  33.6114627 108.6539108  44.9997493  34.8799982 109.1224218  44.3191639
  35.9972177 106.5778601  49.5783414  35.4936973 106.5408736  48.7651219
  36.2902784 107.4871343  49.6380070  32.2415063 106.6617330  48.5849595
  33.1068060 106.4660139  48.2255485  32.3092572 106.4327682  49.5118952
  41.8560193 116.9514911  42.0559789  41.0789636 116.6126071  41.6114951
  42.5351674 116.9567534  41.3814754  36.6712222 112.0709649  41.9466397
  36.3662358 112.3855798  42.7976540  37.6242665 112.1491069  41.9893730
  40.0951500 116.4248892  48.7126397  39.4375175 117.1148154  48.8006526
  40.8991900 116.8145324  49.0560383  29.8477382 108.8919538  45.9565962
  30.4221134 108.6694720  45.2239155  30.4348364 108.9608233  46.7094564
  38.9056959 114.7793265  46.7630339  39.4188841 115.4123257  47.2652049
  39.5558183 114.1794461  46.3973699  30.1746969 110.9223999  39.9761848
  29.3384281 111.2598686  40.2971122  30.0351739 110.7872979  39.0388984
  32.1500050 105.7660787  44.6841032  31.4964462 105.4509804  44.0597646
  32.1080524 105.1436528  45.4100855  33.2611255 116.0480082  36.5994324
  32.3538316 115.8169336  36.7985473  33.7582287 115.2517701  36.7868305
  35.3837790 112.2542721  49.0088679  34.4660351 112.4757668  48.8510367
  35.7997934 112.3289031  48.1500387  36.1672838 113.6534136  44.1391360
  36.9144657 114.1655534  43.8298482  36.4364427 113.3318189  44.9995753
  34.4399488 116.1492677  41.1218314  33.5310707 115.8651710  41.2190784
  34.4694572 116.5691756  40.2621621  38.6151675 110.6891253  46.1210149
  37.8774432 110.1768639  46.4520391  38.8678448 110.2491634  45.3093426
  38.7163302 103.4667505  46.7151918  39.0222179 102.6064868  46.4277833
  39.4415907 104.0585125  46.5150912  32.9884382 113.7621298  47.2228109
  33.0432992 112.8095134  47.1470586  32.1775584 113.9180737  47.7069408
  30.9276742 112.3798357  44.9818488  30.1144607 112.6792528  45.3883680
  31.4235736 111.9854046  45.6992970  36.5250954 112.8440182  53.8133382
  36.8800341 113.0711655  54.6727848  37.1723085 113.1758559  53.1910637
  42.2548691 115.9658618  44.5182711  42.1166589 116.1560214  43.5903900
  41.8984909 116.7278001  44.9750762  30.4190817 109.9516713  50.5979723
  31.0590196 109.8105472  49.9002686  29.5868347 109.6651226  50.2218325
  42.2818070 118.0335145  49.5293983  42.7154577 117.9410434  50.3777037
  42.9949651 118.0092645  48.8913999  27.5033884 113.3962225  42.7874468
  26.5731472 113.3346681  43.0044430  27.5991356 112.8738178  41.9911109
  27.4219433 109.9217038  45.3752710  27.6826250 110.8362371  45.2661870
  28.2436605 109.4541480  45.5249323  28.8944358 111.3354795  52.5451534
  29.5667412 111.1272157  51.8964183  28.0674145 111.1376881  52.1056767
  43.1433620 118.0758845  52.0626868  43.3369510 118.9804656  52.3086143
  43.0434238 117.6166265  52.8965453  34.7969930 107.9616736  54.5617195
  34.1497845 108.6606686  54.4681672  35.5670946 108.3952880  54.9293443
  34.9734065 115.7997501  52.6214015  35.9026125 115.9508661  52.4482982
  34.5525095 115.8881522  51.7662661  29.2971856 114.6097398  53.3053972
  29.1591654 113.8777637  53.9065511  30.2076779 114.5206298  53.0238159
  38.2586803 116.5485802  38.0538450  37.6415974 115.8232631  37.9571503
  37.7903292 117.3095163  37.7105524  31.9254156 114.3217357  52.7937651
  32.6353775 113.6810550  52.7524270  31.8823465 114.5730252  53.7163832
  30.6383090 111.3082575  54.6133291  30.1020447 110.8573314  55.2654887
  30.0499799 111.4428484  53.8703755  30.0485349 110.7671227  37.1759754
  29.1714816 110.6460027  36.8122001  30.5243102 109.9757305  36.9238643
  26.3722212 110.4438583  51.6986285  26.2880400 109.8364253  50.9636695
  25.5504918 110.9347601  51.6995781  36.5445925 108.9292147  47.0656480
  37.0414625 108.1762109  46.7457550  35.7732907 108.9656463  46.4999690
  44.3975683 114.6332512  48.7074772  44.3865559 115.5157227  48.3368705
  43.5293062 114.2804063  48.5129309  33.1280894 111.0709529  46.7928165
  32.7578682 110.5180570  47.4809070  33.6239987 110.4667663  46.2403165
  41.0148257 113.5281153  45.1744938  41.4808710 114.3609145  45.1005240
  41.4655758 113.0626135  45.8790196  38.9864920 105.8961740  49.2135839
  38.0728000 106.1265967  49.3818046  39.4158022 105.9800184  50.0649871
  38.7571379 114.0851632  51.7135733  38.1042829 114.3327539  51.0588186
  39.1351759 113.2715770  51.3798210  34.8058952 114.8271443  58.2001770
  34.1299589 114.7265572  58.8704145  35.6286586 114.6710657  58.6637767
  28.5246228 108.4813520  53.0381271  28.5887554 109.3428351  52.6258669
  28.4613348 107.8687522  52.3053629  27.9998500 110.5536653  56.6854305
  28.6270539 110.1713730  57.2991829  27.1426419 110.3350855  57.0509998
  24.7764043 112.3613082  42.6172660  25.0717484 111.4523760  42.5639714
  23.8752079 112.3400821  42.2953662  28.3058290 110.4369078  48.6000209
  27.5844876 111.0505046  48.4607682  29.0951546 110.9726843  48.5216854
  31.1084604 107.7723505  54.8740860  31.6319005 108.0185802  55.6367170
  30.8896937 108.6043540  54.4543998  26.5051885 110.0427180  42.7411985
  26.1764591 109.1624559  42.5587091  26.8591255 109.9874848  43.6288374
  29.6193708 110.3300149  43.1087463  29.9589780 110.8586071  42.3866071
  30.0665828 110.6680555  43.8846029  32.3137149 108.7137200  52.5590531
  31.9733969 107.9145013  52.9611211  31.6076155 109.0138911  51.9867364
  32.9653621 105.7986513  51.0117854  33.7879690 105.3246991  50.8896744
  33.2091684 106.5776996  51.5116540  31.6061855 108.8274771  41.3080756
  32.3270218 109.2056024  40.8044472  30.9827159 109.5463648  41.4115734
  35.7492978 109.5319920  42.2439088  35.9656592 110.4144558  41.9427916
  35.2687045 109.1406133  41.5144730  30.4892199 112.4905633  48.8209832
  30.3436780 112.8045936  49.7134114  30.0117403 113.1090533  48.2680731
  32.3488582 109.4808181  48.8690722  32.3350151 108.5849274  48.5323020
  33.0661010 109.4878845  49.5029008  34.2014713 109.9145521  50.9143849
  33.9432491 110.8362592  50.9128180  33.6699753 109.5175956  51.6044314
  31.7525478 108.3622561  44.1378292  31.8741389 107.4339208  44.3369180
  31.4627520 108.3761247  43.2256608  34.6216668 106.0477472  47.2745012
  34.6438365 106.1116805  46.3196992  35.0384727 105.2081981  47.4685518
  45.0000293 115.7832731  45.3124235  45.4431439 115.0340057  44.9143358
  44.1226803 115.7742868  44.9297967  31.2366558 109.8754559  58.3468225
  31.2854713 110.7516682  57.9645994  31.7789072 109.3331952  57.7739868
  41.8419278 117.2688148  54.9402090  41.8917283 117.1038156  55.8817613
  41.7333202 116.4015407  54.5499971  39.1323041 113.2519076  56.2561397
  40.0332904 113.1125541  55.9645395  39.2071015 113.4173531  57.1959575
  33.4665846 110.6285931  55.1014583  32.5969155 110.9219497  54.8297172
  33.7025326 111.2126376  55.8221847  44.5433158 117.2537970  47.7046682
  45.3780049 117.6927774  47.8684243  44.6792286 116.7776623  46.8854928
  41.5924663 114.8117705  53.6524170  42.0678785 115.0045351  52.8443021
  40.6690229 114.8676890  53.4067554  36.1704880 106.8465548  52.6180004
  36.6886824 107.5826575  52.2926492  35.8160013 107.1529541  53.4526763
  27.7503818 111.7070229  40.7341410  27.0573063 111.7814584  40.0781446
  27.5055569 110.9430573  41.2562927  36.4217474 103.2665831  48.1380900
  36.7019228 102.5989020  48.7641327  37.2068081 103.4594926  47.6255564
  40.2926332 111.6883465  51.8852476  41.2443755 111.7881562  51.9064700
  40.1229783 110.8961733  52.3950560  38.3140712 108.7739048  52.0711876
  37.7190644 109.0544061  51.3758365  38.0290409 109.2632949  52.8428618
  42.7714410 114.9089584  50.9994775  42.7390730 113.9705585  51.1854459
  43.3815034 114.9873621  50.2660600  34.6097741 113.7785637  37.0421979
  35.5556846 113.6491845  37.1110397  34.2311986 113.0400299  37.5191407
  42.9208899 111.7000628  51.0453058  42.4047947 110.9159084  50.8582987
  43.8048847 111.3719344  51.2099578  40.5819626 105.4441643  47.0048871
  40.3844447 105.1356732  47.8892203  41.1919331 106.1703282  47.1346801
  48.5890960 115.9705591  50.1400812  49.3194349 115.7090879  50.7008515
  47.9797906 115.2334313  50.1802880  46.6706257 114.1113454  50.7375263
  45.9439421 113.9769419  50.1291755  46.2553544 114.4190282  51.5431981
  32.7940658 111.7035614  36.9776864  31.8872114 111.4068726  37.0539578
  33.0716639 111.4065432  36.1111151  34.4102724 106.2472503  43.1321106
  33.6003452 105.9019588  43.5076352  35.0987141 105.9380047  43.7208717
  36.3393272 105.3250550  44.7545402  36.8924311 105.7446004  45.4135425
  36.5763359 104.3986298  44.7968358  32.3626371 111.3137624  60.5348166
  32.2623098 112.2631981  60.4660257  32.1447914 110.9855863  59.6624236
  31.5639443 108.5622549  37.1188844  32.4258607 108.8877447  37.3784661
  31.7489787 107.7754045  36.6061909  39.7172079 107.4351075  44.2624067
  39.1370748 108.0935879  43.8802119  39.4508012 106.6128420  43.8511484
  38.1675646 106.8356133  46.4645387  38.6675424 106.9472668  45.6559706
  38.8111254 106.5317186  47.1046195  32.2257642 114.7434763  59.3513228
  31.7424723 115.5435123  59.5577117  32.3118581 114.7542708  58.3980672
  38.4996957 109.5951166  43.3180415  37.6122812 109.8800816  43.1000610
  38.9150946 109.4344929  42.4707692  41.8511493 109.6197687  47.0334754
  42.6271884 110.1094139  47.3059371  41.1259628 110.0455741  47.4906624
  44.2884052 110.3325306  48.0908695  44.8828543 110.0921042  47.3802003
  44.3610636 109.6132437  48.7182231  38.4737981 115.1105702  43.5330705
  38.4173182 115.5674253  42.6938337  39.0266324 114.3496386  43.3553548
  42.2842787 110.8995434  44.3580825  42.0279721 110.4992069  45.1889032
  41.6595655 111.6139228  44.2330964  46.5955125 113.6391507  46.8652116
  46.0354683 113.7084696  47.6383678  45.9898628 113.4632491  46.1451612
  39.2072760 116.3010483  40.8283234  39.1521564 116.1354754  39.8871678
  38.5818816 117.0086516  40.9845424  23.9965275 111.5378547  54.6544656
  24.6424139 111.0277501  55.1431882  23.7882427 112.2747229  55.2288082
  32.5168886 105.8018592  40.4068553  32.5047556 106.7460432  40.5636823
  33.4092308 105.6188737  40.1128014  36.3321005 102.3961369  44.6614489
  35.5653401 101.8419855  44.8071172  36.7431710 102.4683237  45.5228641
  28.3362766 108.6846164  58.7519671  29.1994228 108.3282969  58.9622995
  27.7628177 108.3460059  59.4395075  47.7569391 119.5365863  51.6134180
  47.4133660 120.4267505  51.5373291  48.1248354 119.3467521  50.7503765
  49.5557057 118.7959422  46.7151918  49.8615934 117.9356786  46.4277833
  50.2809662 119.3877042  46.5150912  49.8258675 121.2253658  49.2135839
  48.9121755 121.4557885  49.3818046  50.2551776 121.3092102  50.0649871
  47.2611229 118.5957748  48.1380900  47.5412982 117.9280937  48.7641327
  48.0461835 118.7886844  47.6255564  51.4213380 120.7733561  47.0048871
  51.2238201 120.4648649  47.8892203  52.0313086 121.4995200  47.1346801
  47.1787027 120.6542468  44.7545402  47.7318065 121.0737921  45.4135425
  47.4157113 119.7278216  44.7968358  47.1714760 117.7253286  44.6614489
  46.4047156 117.1711773  44.8071172  47.5825465 117.7975155  45.5228641
   4.8209528  31.5024433  34.1325874   4.0673237  30.9331831  33.9769879
   4.9557069  31.4687098  35.0796509   1.6425276  31.4727183  32.0369541
   2.0856422  30.7234509  31.6388664   0.7651786  31.4637320  31.6543273
   1.1858141  32.9432422  34.4291989   2.0205032  33.3822226  34.5929549
   1.3217270  32.4671075  33.6100235   5.2315943  31.6600043  36.8646119
   5.9619332  31.3985331  37.4253822   4.6222889  30.9228765  36.9048187
   3.3131240  29.8007906  37.4620570   2.5864404  29.6663871  36.8537061
   2.8978527  30.1084734  38.2677288   0.9309035  26.0219758  34.8154001
   1.5253526  25.7815494  34.1047310   1.0035619  25.3026888  35.4427538
   3.2380108  29.3285959  33.5897423   2.6779666  29.3979148  34.3628985
   2.6323612  29.1526943  32.8696919   4.8236127  46.0042473  36.2827378
   5.4614537  45.8849220  35.5790718   4.7056970  46.9523317  36.3415330
   1.6325833  45.9569901  36.2188903   1.2944344  45.8410965  35.3309438
   2.5015601  45.5561066  36.1989909   2.1145616  47.1104752  42.1775109
   2.1034257  46.7157551  41.3055612   2.2766255  46.3770825  42.7708880
   3.0712207  51.4776345  27.5200259   2.4200187  52.0630425  27.1334273
   3.8656570  52.0082540  27.5795296   4.3777395  43.7293926  33.3580586
   5.1640484  43.3113350  33.0071003   4.6416099  44.6340019  33.5262235
   4.5487472  49.1666777  28.0569243   3.9133305  49.2401403  28.7690148
   4.2184879  49.7560376  27.3788322   9.7785822  43.6669160  34.2613565
  10.5110994  43.0968376  34.4951394   9.0225178  43.2790760  34.7020070
   1.3961942  46.0896401  31.4576907   1.0320149  45.5627022  32.1689829
   2.2529058  45.6994870  31.2843393   7.3011243  37.3790734  38.7208173
   6.9694567  38.2486145  38.4969388   6.7056856  37.0627018  39.4002204
   1.0367429  41.1186301  26.4538256   1.2041831  41.9866537  26.8208727
   0.8464598  41.2813583  25.5299545   3.7942762  49.5803280  38.1204086
   3.4943485  50.4828319  38.0119893   3.4493822  49.3135463  38.9725239
   7.1939906  42.0985820  35.8001524   6.2856783  42.0301228  35.5060284
   7.1427502  42.5757765  36.6283349   1.2680772  43.5175466  43.7436421
   0.4914106  44.0769386  43.7339285   1.9071335  44.0032249  44.2651291
   9.0601552  40.3002258  37.5779397   8.4175933  40.5934792  36.9319192
   8.5556481  40.1855179  38.3832594   6.7141716  44.0465432  28.2665257
   7.6259572  44.2792818  28.0912954   6.2051363  44.6302476  27.7040335
   4.9982484  48.4690059  41.9026549   5.4065840  48.0272470  41.1581182
   4.2759745  47.8942687  42.1560742   1.3513554  43.4062666  39.2760106
   2.1974749  43.8302080  39.4194755   1.2912191  42.7496290  39.9698669
   5.3211298  49.0291250  35.6578838   4.6920161  49.1936964  34.9554906
   4.9336960  49.4432860  36.4289802   9.2000530  49.9645688  33.0123202
   8.5151568  50.3444589  32.4620235   9.2844379  50.5741015  33.7455150
   4.5012999  41.0667035  40.9341280   4.2573931  41.8209095  40.3975556
   4.7772930  41.4452382  41.7688527   6.4551462  47.6105647  39.6118545
   6.6668357  48.2537407  38.9352927   6.4081210  46.7767963  39.1440476
   4.0577691  40.2223468  36.5155118   3.1962170  40.5204721  36.8071855
   4.0840125  40.4393866  35.5836150   0.8739260  48.7665658  32.9228923
   1.3377606  49.0453361  32.1333546   0.6096058  47.8649103  32.7402014
   7.5697290  50.4877602  37.7840903   8.3914733  50.0857790  37.5023584
   7.5659693  50.3845836  38.7357019   1.3353893  50.0361646  39.9401613
   1.3998326  50.4982053  40.7759785   0.6264817  49.4059011  40.0683923
  15.6603283  46.8316351  34.1325874  14.9066991  46.2623749  33.9769879
  15.7950824  46.7979015  35.0796509   1.0501911  51.7029753  29.8080594
   0.9147586  52.5481289  30.2365441   1.5911723  51.9049031  29.0446527
   2.6770387  52.3253320  43.9380936   2.2334241  51.5389698  43.6201840
   3.3387601  52.5132470  43.2724826   4.7751625  52.6056120  41.9662337
   4.7570101  53.4265001  41.4742606   5.6971545  52.4810195  42.1912478
   1.2324679  50.1200249  42.8085845   1.7653016  49.3588537  42.5785153
   0.7038761  49.8273901  43.5510000   4.3994374  35.2260315  38.3379487
   4.0558644  36.1161957  38.2618598   4.7673337  35.0361973  37.4749072
   4.3644657  45.2168926  26.8451922   3.8491281  45.9873531  27.0840310
   4.0921966  44.5434062  27.4684984   1.9491768  40.0618627  31.9037161
   1.0933364  39.6725477  31.7242799   2.3618720  40.1410588  31.0436946
   3.4790915  37.5964970  36.3028720   2.9755710  37.5595105  35.4896526
   3.7721522  38.5057713  36.3625377   9.3378931  47.9701281  28.7805096
   8.5608374  47.6312440  28.3360258  10.0170412  47.9753904  28.1060061
   4.1530960  43.0896018  28.6711703   3.8481096  43.4042167  29.5221847
   5.1061402  43.1677438  28.7139036   2.5977392  49.2486241  30.3204657
   2.0698754  48.5139001  30.0077895   2.0964895  50.0260918  30.0744626
   7.5770238  47.4435262  35.4371704   6.9193913  48.1334523  35.5251832
   8.3810637  47.8331694  35.7805690   6.3875697  45.7979635  33.4875645
   6.9007579  46.4309627  33.9897355   7.0376921  45.1980830  33.1219005
   3.6498071  55.7763959  26.2436317   2.9759770  56.0795656  26.8521274
   4.0363893  56.5793039  25.8941774   2.8656528  43.2729090  35.7333986
   1.9479089  43.4944037  35.5755674   3.2816671  43.3475401  34.8745693
   3.6491576  44.6720506  30.8636666   4.3963395  45.1841903  30.5543788
   3.9183165  44.3504559  31.7241060   1.9218226  47.1679047  27.8463620
   1.0129445  46.8838079  27.9436090   1.9513310  47.5878125  26.9866927
   7.1537493  50.7785636  31.6154788   6.6999820  49.9376546  31.6719979
   6.5231460  51.4147034  31.9529568   6.0970413  41.7077622  32.8455455
   5.3593170  41.1955008  33.1765698   6.3497186  41.2678004  32.0338732
   5.5970432  52.6162133  32.5504606   5.8893407  53.1767190  31.8316972
   6.1069053  52.9090694  33.3057765   6.1982040  34.4853874  33.4397225
   6.5040917  33.6251238  33.1523140   6.9234645  35.0771494  33.2396219
   1.6194314  48.7087790  25.1851699   1.1813743  47.9923649  24.7257336
   2.3604754  48.9363905  24.6236790   0.5604058  53.3942484  33.6398059
   0.5180236  53.6203330  32.7106591   1.4766756  53.1605858  33.7883861
   4.0069691  43.8626551  40.5378689   4.3619079  44.0898025  41.3973154
   4.6541823  44.1944928  39.9155944   9.7367428  46.9844987  31.2428018
   9.5985327  47.1746583  30.3149207   9.3803647  47.7464370  31.6996069
   9.7636808  49.0521514  36.2539289  10.1973315  48.9596803  37.1022343
  10.4768389  49.0279015  35.6159305   3.4964703  52.6523608  37.7872390
   3.5501725  53.2214545  38.5550106   2.6279484  52.8225493  37.4226427
  10.6252358  49.0945215  38.7872175  10.8188248  49.9991025  39.0331449
  10.5252976  48.6352634  39.6210760   2.2788668  38.9803106  41.2862502
   1.6316583  39.6793055  41.1926978   3.0489684  39.4139249  41.6538750
   5.6867466  49.2451958  44.3613055   5.5352973  49.0162509  43.4443139
   5.6772146  50.2022559  44.3744400   2.4552803  46.8183870  39.3459322
   3.3844863  46.9695030  39.1728289   2.0343833  46.9067891  38.4907968
   1.8489286  55.9443631  28.4583396   2.0241042  55.4731675  29.2729018
   1.1622074  56.5709398  28.6864656   2.8046350  50.2216138  34.5046697
   2.4696182  50.1816908  35.4004347   2.3050295  49.5560854  34.0317107
   5.7405541  47.5672172  24.7783757   5.1234712  46.8419000  24.6816809
   5.2722030  48.3281532  24.4350831   7.3959673  52.2771080  42.4389537
   7.3372219  51.5930300  41.7720120   7.7979191  53.0190070  41.9870163
   7.3977080  50.2410664  40.6703517   6.5103859  49.9036586  40.7929916
   7.9675631  49.5093695  40.9072282   0.9278233  54.9012117  37.6364760
   0.8548405  55.7067088  38.1484064   0.4855627  55.1004082  36.8112781
   4.0264663  39.9478516  33.7901787   4.5233363  39.1948478  33.4702857
   3.2551645  39.9842833  33.2244996  11.8794421  45.6518882  35.4320078
  11.8684297  46.5343597  35.0614011  11.0111800  45.2990432  35.2374615
   3.3876917  54.7998951  39.7922919   4.1004889  55.4346415  39.7198820
   2.8966946  54.8962817  38.9762920   5.1094444  48.7050203  31.3640210
   4.1750723  48.8251666  31.1944915   5.2871112  47.8022670  31.1000220
   8.4966995  44.5467523  31.8990244   8.9627447  45.3795514  31.8250547
   8.9474496  44.0812504  32.6035503   6.5643226  50.8911344  28.8976396
   6.8403070  50.7767938  29.8070270   5.6947725  50.4928829  28.8588569
   6.4683658  36.9148110  35.9381146   5.5546738  37.1452336  36.1063353
   6.8976759  36.9986554  36.7895178   6.2390117  45.1038002  38.4381040
   5.5861567  45.3513909  37.7833492   6.6170496  44.2902140  38.1043517
   3.1997290  55.1397695  32.5409210   3.3819685  54.3219351  33.0036962
   4.0230276  55.3565387  32.1034100   3.5339456  54.0665880  29.8024259
   4.0627222  53.5558334  29.1894421   3.7967675  53.7508410  30.6669792
   2.2877690  45.8457813  44.9247077   1.6118327  45.7451942  45.5949452
   3.1105323  45.6897026  45.3883074   1.0300472  57.1524740  39.1604693
   1.5818780  57.3156362  39.9253778   1.3706666  57.7429178  38.4884718
   5.8811347  51.9785998  45.0153347   6.4251251  52.5915956  44.5208302
   5.2998192  52.5365576  45.5320360   4.1668860  55.1006716  36.1468375
   4.0419999  54.2996455  35.6379320   4.8247951  55.5952909  35.6582345
   6.2303768  52.9015736  37.7747925   5.2834104  52.7821087  37.7026252
   6.5786541  52.0138234  37.8574186   3.2350201  52.6968452  33.9752277
   3.0875164  51.7685159  34.1559847   4.0603695  52.7188543  33.4909353
   6.8384323  53.5197011  35.0617150   7.7630871  53.3139872  34.9241601
   6.6699627  53.2713412  35.9706492   3.2311716  40.5506290  28.9684395
   3.4475330  41.4330927  28.6673223   2.7505783  40.1592503  28.2390037
   1.6833451  40.9331891  37.6389156   1.4251228  41.8548962  37.6373487
   1.1518491  40.5362325  38.3289620   6.6279639  54.0382678  30.4179241
   6.8016517  53.4729101  29.6653094   7.1208531  54.8383573  30.2358731
   2.1035406  37.0663841  33.9990319   2.1257103  37.1303175  33.0442298
   2.5203465  36.2268350  34.1930825  12.4819031  46.8019101  32.0369541
  12.9250177  46.0526426  31.6388664  11.6045541  46.7929237  31.6543273
   7.6154812  53.3549442  27.5176140   8.3105717  53.9756135  27.7363454
   7.9577962  52.5044794  27.7928518   9.5146235  50.8049148  29.0463471
  10.0397559  51.1436421  28.3212791   9.4268588  49.8696163  28.8626605
   1.1766284  54.7183222  41.1753347   1.4853410  54.4732368  42.0476047
   1.9741766  54.9229860  40.6872217   1.1986896  56.8721131  33.4058724
   0.7591886  56.3797510  34.0991580   1.9495013  56.3294099  33.1650799
   9.2040141  51.4382052  44.3514668   8.4135685  51.4206190  43.8119168
   8.9673496  51.9770345  45.1063705   9.3238016  48.2874518  41.6647397
   9.3736021  48.1224525  42.6062920   9.2151939  47.4201777  41.2745278
   6.6141779  44.2705446  42.9806704   7.5151641  44.1311911  42.6890702
   6.6889753  44.4359901  43.9204881  10.8256213  50.7071460  41.9089419
  10.5341021  51.0701440  42.7452880  10.2128344  49.9938468  41.7302751
  12.0251895  48.2724339  34.4291989  12.8598787  48.7114143  34.5929549
  12.1611024  47.7962992  33.6100235   9.0743401  45.8304074  40.3769477
   9.5497523  46.0231720  39.5688328   8.1508967  45.8863260  40.1312860
   3.6523618  37.8651918  39.3425310   4.1705562  38.6012945  39.0171799
   3.2978750  38.1715911  40.1772070   3.9036212  34.2852200  34.8626207
   4.1837966  33.6175389  35.4886634   4.6886819  34.4781296  34.3500871
   1.7069680  53.4611194  26.4251233   1.1343647  54.0801381  25.9721705
   2.2802474  54.0110556  26.9591155   7.7745070  42.7069834  38.6097782
   8.7262493  42.8067932  38.6310006   7.6048521  41.9148103  39.1195867
   5.7959450  39.7925417  38.7957183   5.2009382  40.0730430  38.1003672
   5.5109146  40.2819318  39.5673924   4.9266940  53.7448344  27.5559816
   5.8597613  53.6793906  27.7592691   4.8390153  54.5804611  27.0974348
   7.5554957  53.0614215  24.5163763   7.4768588  52.7274078  25.4099521
   8.3764624  53.5535983  24.5155236  10.2533148  45.9275954  37.7240082
  10.2209468  44.9891955  37.9099766  10.8633772  46.0059991  36.9905907
   2.0916479  44.7972007  23.7667286   3.0375584  44.6678215  23.8355704
   1.7130724  44.0586669  24.2436714  10.4027636  42.7186997  37.7698365
   9.8866685  41.9345454  37.5828294  11.2867585  42.3905714  37.9344884
   8.0638363  36.4628013  33.7294178   7.8663185  36.1543101  34.6137510
   8.6738069  37.1889652  33.8592108  16.0709698  46.9891961  36.8646119
  16.8013086  46.7277249  37.4253822  15.4616643  46.2520683  36.9048187
  14.1524995  45.1299823  37.4620570  13.4258159  44.9955788  36.8537061
  13.7372282  45.4376652  38.2677288   1.9755171  48.8489753  45.2267943
   2.8958181  49.0268352  45.4207989   1.9404754  47.9045798  45.0747642
   1.8921462  37.2658873  29.8566412   1.0822190  36.9205958  30.2321658
   2.5805879  36.9566417  30.4454024   3.8212010  36.3436920  31.4790709
   4.3743049  36.7632373  32.1380732   4.0582096  35.4172668  31.5213665
   7.1990817  38.4537445  30.9869373   6.6189486  39.1122249  30.6047426
   6.9326750  37.6314790  30.5756791   5.6494383  37.8542503  33.1890694
   6.1494162  37.9659037  32.3805012   6.2929991  37.5503556  33.8291502
   5.9815695  40.6137535  30.0425722   5.0941550  40.8987186  29.8245916
   6.3969684  40.4531299  29.1952998   9.3330231  40.6384056  33.7580061
  10.1090621  41.1280509  34.0304678   8.6078365  41.0642111  34.2151930
  11.7702790  41.3511676  34.8154001  12.3647281  41.1107411  34.1047310
  11.8429374  40.6318806  35.4427538   5.1258909  50.3782210  24.1373742
   5.8294759  50.5832213  24.7531397   4.4021557  50.9458972  24.4022825
   5.9556719  46.1292071  30.2576012   5.8991920  46.5860623  29.4183644
   6.5085061  45.3682756  30.0798854   9.7661525  41.9181803  31.0826131
   9.5098459  41.5178439  31.9134339   9.1414393  42.6325597  30.9576270
  14.0773863  44.6577876  33.5897423  13.5173421  44.7271066  34.3628985
  13.4717366  44.4818861  32.8696919   7.0345606  50.8164739  26.1872202
   7.8691210  50.3845938  26.0049676   6.8729949  50.6446753  27.1149096
   6.6891498  47.3196853  27.5528541   6.6340302  47.1541124  26.6116985
   6.0637553  48.0272885  27.7090731   4.0037405  49.6245764  46.8782104
   4.8728565  49.7986417  46.5168739   3.5244157  50.4440181  46.7557833
   3.8139743  33.4147738  31.3859796   3.0472139  32.8606225  31.5316478
   4.2250448  33.4869607  32.2473948  15.6629881  61.3334390  36.2827378
  16.3008291  61.2141138  35.5790718  15.5450724  62.2815234  36.3415330
  12.4719587  61.2861818  36.2188903  12.1338099  61.1702883  35.3309438
  13.3409356  60.8852984  36.1989909   8.3306403  63.1397295  32.2085794
   7.7671268  63.0487232  31.4402082   8.2158798  62.3197199  32.6888286
  12.9539370  62.4396670  42.1775109  12.9428011  62.0449468  41.3055612
  13.1160010  61.7062743  42.7708880   5.8770835  64.6348486  35.0470014
   6.6692127  64.2939311  34.6316314   6.1167485  64.7443461  35.9672168
  13.9105962  66.8068263  27.5200259  13.2593942  67.3922343  27.1334273
  14.7050325  67.3374457  27.5795296   7.8361589  63.8957400  27.9187393
   8.6092465  63.3486387  27.7800269   8.1886988  64.7601649  28.1301855
   9.6746632  65.2233782  41.1254293   9.3836497  66.1279413  41.0100959
  10.3103616  65.2650310  41.8398362  10.6002838  62.6010630  37.7155652
  11.1966411  62.3766653  37.0012615  10.6577810  61.8595376  38.3181100
  10.1727867  60.0550066  25.5505843  10.4253387  59.5331587  24.7889306
   9.2352426  59.8916211  25.6532527  15.2171150  59.0585844  33.3580586
  16.0034239  58.6405267  33.0071003  15.4809854  59.9631936  33.5262235
  15.3881227  64.4958694  28.0569243  14.7527060  64.5693321  28.7690148
  15.0578633  65.0852293  27.3788322  20.6179577  58.9961077  34.2613565
  21.3504749  58.4260294  34.4951394  19.8618932  58.6082678  34.7020070
   9.8924156  61.9578172  27.7530218   9.7760414  61.2823075  28.4211302
  10.0026415  61.4710546  26.9362371  12.2355696  61.4188319  31.4576907
  11.8713904  60.8918940  32.1689829  13.0922812  61.0286788  31.2843393
  18.1404997  52.7082651  38.7208173  17.8088322  53.5778062  38.4969388
  17.5450610  52.3918935  39.4002204  11.8761183  56.4478219  26.4538256
  12.0435586  57.3158455  26.8208727  11.6858352  56.6105500  25.5299545
  14.6336517  64.9095197  38.1204086  14.3337240  65.8120236  38.0119893
  14.2887576  64.6427381  38.9725239   8.0848998  61.3608994  34.1540791
   7.1599495  61.2285208  34.3618482   8.3333411  62.1403214  34.6510733
  18.0333660  57.4277738  35.8001524  17.1250538  57.3593146  35.5060284
  17.9821256  57.9049683  36.6283349  11.8550404  58.9035876  27.4384923
  11.7350029  59.3492927  28.2770403  11.1602993  59.2521194  26.8798461
   5.4457809  61.0042268  34.9884580   5.5750190  61.2576747  35.9023991
   4.7655260  61.5969976  34.6689235   9.6157296  71.6739518  31.0875054
   9.5381326  72.6247343  31.1663534   9.0118940  71.3285390  31.7449980
  12.1074526  58.8467383  43.7436421  11.3307860  59.4061303  43.7339285
  12.7465089  59.3324166  44.2651291  19.8995307  55.6294176  37.5779397
  19.2569687  55.9226709  36.9319192  19.3950235  55.5147096  38.3832594
  17.5535470  59.3757349  28.2665257  18.4653327  59.6084736  28.0912954
  17.0445118  59.9594393  27.7040335  10.3620898  61.6552837  43.3054388
  11.1035583  62.1937881  43.0289211   9.6557884  62.2819125  43.4625940
  15.8376238  63.7981977  41.9026549  16.2459594  63.3564388  41.1581182
  15.1153500  63.2234605  42.1560742  12.1907308  58.7354584  39.2760106
  13.0368503  59.1593997  39.4194755  12.1305946  58.0788208  39.9698669
  16.1605053  64.3583168  35.6578838  15.5313915  64.5228882  34.9554906
  15.7730715  64.7724777  36.4289802  20.0394285  65.2937606  33.0123202
  19.3545323  65.6736507  32.4620235  20.1238134  65.9032932  33.7455150
  15.3406753  56.3958952  40.9341280  15.0967685  57.1501013  40.3975556
  15.6166684  56.7744300  41.7688527  17.2945216  62.9397565  39.6118545
  17.5062112  63.5829324  38.9352927  17.2474965  62.1059881  39.1440476
  14.8971445  55.5515385  36.5155118  14.0355924  55.8496639  36.8071855
  14.9233880  55.7685784  35.5836150  11.7133015  64.0957576  32.9228923
  12.1771360  64.3745279  32.1333546  11.4489813  63.1941020  32.7402014
   8.6057096  63.6429057  35.8608687   9.1758453  64.0716326  35.2226171
   9.1965208  63.3611642  36.5592872  10.6501901  60.2180728  29.7318488
  11.3525944  60.6701772  30.1992415  10.3182529  59.5764547  30.3598382
   9.0982262  58.8092485  44.1069698   8.4680923  59.4908766  44.3405095
   8.9918350  58.6975566  43.1622836   4.3927235  58.4764281  35.0335622
   3.6026289  58.7321809  34.5575733   4.8838482  59.2912619  35.1387663
  18.4091044  65.8169520  37.7840903  19.2308488  65.4149707  37.5023584
  18.4053447  65.7137754  38.7357019   6.3441980  58.8408860  31.9919099
   5.5473143  58.9527554  32.5102594   6.1167572  59.1795512  31.1259989
  12.1747648  65.3653563  39.9401613  12.2392080  65.8273971  40.7759785
  11.4658572  64.7350928  40.0683923   2.6764938  58.7294771  37.4650613
   2.9272976  59.6141781  37.7308189   3.2124486  58.5499373  36.6925705
  26.4997037  62.1608268  34.1325874  25.7460746  61.5915667  33.9769879
  26.6344578  62.1270933  35.0796509  11.8895665  67.0321671  29.8080594
  11.7541340  67.8773206  30.2365441  12.4305478  67.2340948  29.0446527
   8.3763005  53.1113251  46.4694949   7.9829951  52.5579449  47.1442593
   9.1929145  53.4223829  46.8601466   5.3425063  64.5497109  30.3808519
   5.8549583  65.3440359  30.5314083   5.9947776  63.8523399  30.3142120
   7.1519947  67.6662865  32.4631272   7.3286576  68.5880830  32.2752256
   7.9476781  67.3521284  32.8925652  11.2930966  54.5271130  44.0615205
  12.0340679  55.1278283  43.9819668  11.5248889  53.7848768  43.5033248
   6.4372304  59.7127497  42.3393435   6.3225819  58.8112754  42.6400534
   5.5816822  59.9591194  41.9878252  13.5164142  67.6545237  43.9380936
  13.0727996  66.8681616  43.6201840  14.1781355  67.8424388  43.2724826
   8.2751263  69.1841039  38.4641614   8.8258688  69.0558102  37.6918608
   7.4362739  69.4835928  38.1136507  15.6145380  67.9348037  41.9662337
  15.5963855  68.7556918  41.4742606  16.5365300  67.8102112  42.1912478
  12.0718434  65.4492167  42.8085845  12.6046771  64.6880455  42.5785153
  11.5432515  65.1565819  43.5510000  15.2388129  50.5552233  38.3379487
  14.8952398  51.4453874  38.2618598  15.6067091  50.3653890  37.4749072
   3.3073979  62.8785763  31.1568089   4.1449201  63.2882771  30.9401797
   3.4852247  61.9385205  31.1268283  15.2038412  60.5460844  26.8451922
  14.6885035  61.3165448  27.0840310  14.9315720  59.8725980  27.4684984
  12.7885523  55.3910545  31.9037161  11.9327119  55.0017395  31.7242799
  13.2012474  55.4702505  31.0436946  14.3184669  52.9256888  36.3028720
  13.8149465  52.8887023  35.4896526  14.6115276  53.8349631  36.3625377
  10.5627555  53.0095618  35.3094902  11.4280552  52.8138426  34.9500792
  10.6305064  52.7805969  36.2364259  20.1772686  63.2993198  28.7805096
  19.4002129  62.9604358  28.3360258  20.8564167  63.3045822  28.1060061
  14.9924715  58.4187936  28.6711703  14.6874850  58.7334085  29.5221847
  15.9455157  58.4969356  28.7139036  13.4371147  64.5778159  30.3204657
  12.9092508  63.8430919  30.0077895  12.9358649  65.3552836  30.0744626
  18.4163993  62.7727180  35.4371704  17.7587667  63.4626441  35.5251832
  19.2204392  63.1623612  35.7805690   8.1689874  55.2397825  32.6811269
   8.7433626  55.0173007  31.9484462   8.7560857  55.3086520  33.4339870
  17.2269451  61.1271552  33.4875645  17.7401333  61.7601544  33.9897355
  17.8770675  60.5272748  33.1219005   8.4959461  57.2702286  26.7007154
   7.6596774  57.6076973  27.0216429   8.3564231  57.1351266  25.7634291
  10.4712542  52.1139074  31.4086338   9.8176954  51.7988092  30.7842953
  10.4293016  51.4914815  32.1346161  11.5823747  62.3958369  23.3239630
  10.6750809  62.1647623  23.5230779  12.0794779  61.5995989  23.5113612
  14.4891826  71.1055877  26.2436317  13.8153524  71.4087573  26.8521274
  14.8757648  71.9084957  25.8941774  13.7050282  58.6021008  35.7333986
  12.7872844  58.8235955  35.5755674  14.1210426  58.6767318  34.8745693
  14.4885330  60.0012424  30.8636666  15.2357149  60.5133821  30.5543788
  14.7576920  59.6796476  31.7241060  12.7611980  62.4970964  27.8463620
  11.8523200  62.2129997  27.9436090  12.7907064  62.9170043  26.9866927
  17.9931248  66.1077554  31.6154788  17.5393575  65.2668464  31.6719979
  17.3625214  66.7438952  31.9529568  16.9364167  57.0369540  32.8455455
  16.1986924  56.5246926  33.1765698  17.1890941  56.5969921  32.0338732
  16.4364187  67.9454050  32.5504606  16.7287161  68.5059108  31.8316972
  16.9462807  68.2382611  33.3057765  17.0375795  49.8145792  33.4397225
  17.3434671  48.9543155  33.1523140  17.7628399  50.4063412  33.2396219
   3.3300151  60.2176478  31.8278823   3.1324550  59.6245839  31.1029889
   2.7746815  59.9128689  32.5454761  11.3096874  60.1099585  33.9473416
  11.3645484  59.1573421  33.8715892  10.4988076  60.2659024  34.4314714
  12.4588068  64.0379708  25.1851699  12.0207498  63.3215567  24.7257336
  13.1998509  64.2655823  24.6236790   9.2489234  58.7276645  31.7063795
   8.4357100  59.0270815  32.1128987   9.7448228  58.3332333  32.4238277
  11.3997812  68.7234402  33.6398059  11.3573991  68.9495248  32.7106591
  12.3160511  68.4897776  33.7883861  14.8463446  59.1918469  40.5378689
  15.2012834  59.4189942  41.3973154  15.4935577  59.5236846  39.9155944
  20.5761183  62.3136905  31.2428018  20.4379081  62.5038501  30.3149207
  20.2197402  63.0756288  31.6996069   8.7403309  56.2995000  37.3225030
   9.3802688  56.1583759  36.6247993   7.9080840  56.0129514  36.9463632
  20.6030562  64.3813432  36.2539289  21.0367069  64.2888721  37.1022343
  21.3162143  64.3570932  35.6159305   9.5163613  65.5997431  33.4360022
  10.3104211  65.1047751  33.2342597   8.8055305  65.0715294  33.0727728
  14.3358457  67.9815526  37.7872390  14.3895480  68.5506462  38.5550106
  13.4673239  68.1517411  37.4226427   5.8246376  59.7440512  29.5119775
   4.8943964  59.6824968  29.7289737   5.9203848  59.2216465  28.7156416
   5.7431925  56.2695325  32.0998016   6.0038743  57.1840658  31.9907177
   6.5649098  55.8019768  32.2494629   7.2156851  57.6833082  39.2696841
   7.8879904  57.4750444  38.6209490   6.3886637  57.4855168  38.8302073
  21.4646112  64.4237133  38.7872175  21.6582002  65.3282943  39.0331449
  21.3646730  63.9644552  39.6210760  13.1182423  54.3095023  41.2862502
  12.4710338  55.0084973  41.1926978  13.8883438  54.7431167  41.6538750
  16.5261221  64.5743875  44.3613055  16.3746727  64.3454427  43.4443139
  16.5165900  65.5314477  44.3744400  13.2946557  62.1475788  39.3459322
  14.2238617  62.2986948  39.1728289  12.8737587  62.2359809  38.4907968
  12.0934889  66.1726453  37.1157859  11.9545975  65.8045237  37.9883797
  11.3049485  66.6874092  36.9441817  12.6883041  71.2735549  28.4583396
  12.8634797  70.8023592  29.2729018  12.0015829  71.9001315  28.6864656
  13.6440104  65.5508055  34.5046697  13.3089937  65.5108825  35.4004347
  13.1444050  64.8852771  34.0317107   7.6184348  60.9575685  40.0299278
   7.4804146  60.2255924  40.6310817   8.5289271  60.8684585  39.7483466
  16.5799296  62.8964090  24.7783757  15.9628466  62.1710918  24.6816809
  16.1115784  63.6573450  24.4350831  10.2466649  60.6695645  39.5182958
  10.9566267  60.0288837  39.4769576  10.2035957  60.9208539  40.4409139
  18.2353427  67.6062998  42.4389537  18.1765973  66.9222218  41.7720120
  18.6372946  68.3481988  41.9870163   8.9595583  57.6560863  41.3378597
   8.4232940  57.2051601  41.9900194   8.3712291  57.7906771  40.5949062
   7.2544126  74.4224912  35.2323256   7.4940724  75.0543436  35.9102274
   6.4113323  74.0712952  35.5188615   8.3697842  57.1149514  23.9005061
   7.4927308  56.9938315  23.5367308   8.8455595  56.3235592  23.6483950
  18.2370835  65.5702582  40.6703517  17.3497613  65.2328504  40.7929916
  18.8069386  64.8385613  40.9072282   4.6934704  56.7916870  38.4231592
   4.6092893  56.1842540  37.6882002   3.8717410  57.2825889  38.4241088
  11.7671988  70.2304034  37.6364760  11.6942159  71.0359006  38.1484064
  11.3249381  70.4296000  36.8112781  11.5561768  69.4675804  31.1467581
  10.7729289  70.0097484  31.2405806  12.2554513  69.9849784  31.5461823
  14.8658418  55.2770434  33.7901787  15.3627117  54.5240396  33.4702857
  14.0945399  55.3134750  33.2244996  22.7188175  60.9810799  35.4320078
  22.7078051  61.8635515  35.0614011  21.8505555  60.6282350  35.2374615
  14.2270672  70.1290868  39.7922919  14.9398644  70.7638333  39.7198820
  13.7360700  70.2254734  38.9762920  15.9488198  64.0342121  31.3640210
  15.0144477  64.1543583  31.1944915  16.1264867  63.1314588  31.1000220
  11.4493386  57.4187817  33.5173471  11.0791174  56.8658857  34.2054377
  11.9452479  56.8145950  32.9648471  19.3360750  59.8759440  31.8990244
  19.8021202  60.7087432  31.8250547  19.7868250  59.4104422  32.6035503
   9.2782585  67.8785312  40.6128489   9.9792045  68.5121795  40.7657884
   8.8077700  68.2200043  39.8524129  17.4036981  66.2203262  28.8976396
  17.6796825  66.1059856  29.8070270  16.5341480  65.8220746  28.8588569
  17.3077413  52.2440027  35.9381146  16.3940492  52.4744254  36.1063353
  17.7370514  52.3278471  36.7895178  17.0783871  60.4329919  38.4381040
  16.4255321  60.6805827  37.7833492  17.4564251  59.6194057  38.1043517
  14.0391045  70.4689612  32.5409210  14.2213439  69.6511268  33.0036962
  14.8624031  70.6857305  32.1034100  14.3733210  69.3957798  29.8024259
  14.9020977  68.8850252  29.1894421  14.6361430  69.0800328  30.6669792
  13.1271444  61.1749730  44.9247077  12.4512081  61.0743860  45.5949452
  13.9499078  61.0188944  45.3883074   4.8750303  67.4121667  37.5459592
   5.4603740  66.6665355  37.6787496   4.6775142  67.7225624  38.4296256
   7.7288958  70.4472914  32.5622034   7.0599334  70.9319042  32.0786074
   7.5901828  70.6942135  33.4765413  11.8694227  72.4816658  39.1604693
  12.4212535  72.6448279  39.9253778  12.2100420  73.0721096  38.4884718
   6.8458720  54.8291808  39.7626577   6.9100047  55.6906638  39.3503975
   6.7825840  54.2165809  39.0298936   6.3210993  56.9014940  43.4099612
   6.9483031  56.5192017  44.0237136   5.4638912  56.6829142  43.7755304
  16.7205101  67.3077915  45.0153347  17.2645005  67.9207873  44.5208302
  16.1391946  67.8657494  45.5320360   3.0976535  58.7091369  29.3417967
   3.3929976  57.8002048  29.2885020   2.1964571  58.6879109  29.0198969
  15.0062614  70.4298633  36.1468375  14.8813754  69.6288373  35.6379320
  15.6641705  70.9244827  35.6582345   6.6270782  56.7847366  35.3245515
   5.9057368  57.3983333  35.1852988   7.4164038  57.3205131  35.2462161
  17.0697523  68.2307653  37.7747925  16.1227858  68.1113005  37.7026252
  17.4180296  67.3430151  37.8574186   9.4297096  54.1201792  41.5986167
   9.9531498  54.3664089  42.3612476   9.2109429  54.9521827  41.1789304
   4.8264377  56.3905467  29.4657292   4.4977083  55.5102846  29.2832398
   5.1803748  56.3353136  30.3533681  14.0743956  68.0260370  33.9752277
  13.9268918  67.0977077  34.1559847  14.8997449  68.0480460  33.4909353
   7.9406200  56.6778437  29.8332769   8.2802273  57.2064358  29.1111378
   8.3878321  57.0158843  30.6091336  17.6778078  68.8488928  35.0617150
  18.6024625  68.6431790  34.9241601  17.5093381  68.6005329  35.9706492
  10.6349641  55.0615487  39.2835837  10.2946461  54.2623300  39.6856517
   9.9288647  55.3617198  38.7112671  11.2866113  52.1464800  37.7363160
  12.1092182  51.6725278  37.6142051  11.5304176  52.9255284  38.2361847
   9.9274347  55.1753058  28.0326062  10.6482710  55.5534311  27.5289779
   9.3039651  55.8941935  28.1361040  14.0705470  55.8798207  28.9684395
  14.2869085  56.7622845  28.6673223  13.5899537  55.4884421  28.2390037
   8.8104692  58.8383920  35.5455139   8.6649272  59.1524223  36.4379421
   8.3329895  59.4568821  34.9926038  10.6701074  55.8286468  35.5936029
  10.6562643  54.9327562  35.2568327  11.3873503  55.8357132  36.2274315
  12.5227205  56.2623809  37.6389156  12.2644983  57.1840879  37.6373487
  11.9912246  55.8654243  38.3289620  17.4673394  69.3674596  30.4179241
  17.6410271  68.8021018  29.6653094  17.9602285  70.1675491  30.2358731
   3.2850354  61.3789265  38.4842800   2.7403822  62.1549073  38.6163075
   4.1629704  61.7260069  38.3261922  10.0737970  54.7100849  30.8623599
  10.1953882  53.7817495  31.0614486   9.7840013  54.7239535  29.9501914
  12.9429161  52.3955759  33.9990319  12.9650858  52.4595092  33.0442298
  13.3597220  51.5560268  34.1930825  23.3212785  62.1311019  32.0369541
  23.7643931  61.3818344  31.6388664  22.4439295  62.1221155  31.6543273
  18.4548566  68.6841360  27.5176140  19.1499471  69.3048053  27.7363454
  18.7971717  67.8336711  27.7928518   4.0716376  60.5059161  41.3772957
   3.3298112  60.6541796  41.9637588   3.7509120  60.7667427  40.5139707
  20.3539990  66.1341066  29.0463471  20.8791314  66.4728338  28.3212791
  20.2662342  65.1988081  28.8626605  12.0160038  70.0475139  41.1753347
  12.3247165  69.8024286  42.0476047  12.8135520  70.2521778  40.6872217
  12.0380650  72.2013049  33.4058724  11.5985641  71.7089428  34.0991580
  12.7888767  71.6586017  33.1650799   4.5172989  68.3924590  33.4083352
   5.3431009  68.0928362  33.0281995   4.1667041  67.6232212  33.8573140
   9.4854522  67.7451058  35.4781025   8.8634532  67.0821763  35.1783253
  10.1559389  67.7712190  34.7954673   2.7181594  66.3110916  34.3672285
   1.8813503  65.8833091  34.1856287   2.6905240  66.5043360  35.3043077
   9.5579050  56.2232846  45.0713531   9.6067205  57.0994969  44.6891301
  10.1001564  55.6810239  44.4985175  20.0433896  66.7673969  44.3514668
  19.2529439  66.7498108  43.8119168  19.8067250  67.3062263  45.1063705
  20.1631771  63.6166436  41.6647397  20.2129776  63.4516443  42.6062920
  20.0545694  62.7493695  41.2745278   9.0468029  66.2954981  28.9539486
   9.1956150  66.9790446  28.3006159   9.8534473  66.2760071  29.4688942
  17.4535533  59.5997364  42.9806704  18.3545396  59.4603829  42.6890702
  17.5283508  59.7651819  43.9204881  11.7878338  56.9764218  41.8259890
  10.9181648  57.2697785  41.5542479  12.0237819  57.5604663  42.5467154
  21.6649967  66.0363377  41.9089419  21.3734776  66.3993358  42.7452880
  21.0522099  65.3230385  41.7302751  22.8645650  63.6016257  34.4291989
  23.6992541  64.0406061  34.5929549  23.0004779  63.1254910  33.6100235
  19.9137156  61.1595992  40.3769477  20.3891277  61.3523638  39.5688328
  18.9902721  61.2155178  40.1312860   6.8020662  62.3220159  29.9600555
   6.5566704  61.4182489  30.1580765   6.9716577  62.3237309  29.0180033
  14.4917372  53.1943835  39.3425310  15.0099316  53.9304862  39.0171799
  14.1372505  53.5007829  40.1772070   6.0716310  58.0548517  27.4586716
   5.3785555  58.1292872  26.8026752   5.8268062  57.2908860  27.9808233
  14.7429966  49.6144118  34.8626207  15.0231720  48.9467307  35.4886634
  15.5280573  49.8073214  34.3500871  12.5463435  68.7903112  26.4251233
  11.9737402  69.4093299  25.9721705  13.1196229  69.3402473  26.9591155
  18.6138825  58.0361752  38.6097782  19.5656248  58.1359850  38.6310006
  18.4442275  57.2440020  39.1195867  16.6353204  55.1217335  38.7957183
  16.0403136  55.4022348  38.1003672  16.3502901  55.6111236  39.5673924
  15.7660695  69.0740262  27.5559816  16.6991368  69.0085824  27.7592691
  15.6783907  69.9096529  27.0974348  18.3948711  68.3906132  24.5163763
  18.3162343  68.0565996  25.4099521  19.2158378  68.8827900  24.5155236
  21.0926902  61.2567872  37.7240082  21.0603223  60.3183872  37.9099766
  21.7027526  61.3351908  36.9905907  12.9310233  60.1263925  23.7667286
  13.8769338  59.9970133  23.8355704  12.5524478  59.3878586  24.2436714
  21.2421391  58.0478915  37.7698365  20.7260440  57.2637372  37.5828294
  22.1261340  57.7197632  37.9344884  18.9032118  51.7919931  33.7294178
  18.7056939  51.4835019  34.6137510  19.5131823  52.5181570  33.8592108
  26.9103452  62.3183878  36.8646119  27.6406841  62.0569167  37.4253822
  26.3010398  61.5812600  36.9048187  24.9918749  60.4591741  37.4620570
  24.2651913  60.3247706  36.8537061  24.5766036  60.7668570  38.2677288
  12.8148926  64.1781671  45.2267943  13.7351935  64.3560270  45.4207989
  12.7798509  63.2337716  45.0747642  11.1153151  58.0513901  23.7022171
  10.2084606  57.7547014  23.7784885  11.3929132  57.7543719  22.8356457
   2.0331091  59.3720264  34.1521217   1.7133875  58.5185573  33.8595591
   1.4864519  59.5868843  34.9079185   5.8110998  62.0882705  37.8690724
   6.0297008  63.0199813  37.8878758   6.2236772  61.7290680  38.6545528
  12.7315216  52.5950791  29.8566412  11.9215945  52.2497876  30.2321658
  13.4199633  52.2858334  30.4454024  14.6605765  51.6728837  31.4790709
  15.2136803  52.0924291  32.1380732  14.8975851  50.7464586  31.5213665
  10.6838864  57.6615911  47.2593473  10.5835591  58.6110268  47.1905564
  10.4660406  57.3334150  46.3869543   9.8851935  54.9100836  23.8434150
  10.7471099  55.2355734  24.1029968  10.0702279  54.1232332  23.3307216
   1.9019351  62.9923176  36.1214339   1.2082822  62.5777129  35.6084293
   2.6492342  63.0343712  35.5247758  18.0384572  53.7829363  30.9869373
  17.4583241  54.4414167  30.6047426  17.7720504  52.9606707  30.5756791
  16.4888138  53.1834420  33.1890694  16.9887916  53.2950955  32.3805012
  17.1323746  52.8795473  33.8291502  10.5470134  61.0913050  46.0758535
  10.0637216  61.8913410  46.2822424  10.6331073  61.1020995  45.1225979
   3.8156093  62.9241430  33.9980354   3.7926782  63.0229117  33.0462237
   4.1256730  63.7706580  34.3197520   6.4743471  64.9817585  38.1126968
   7.4286725  64.9501527  38.0456900   6.2755995  64.5208208  38.9277194
   7.0642853  63.5518701  40.6797766   7.8835742  64.0462779  40.7032603
   7.3379661  62.6350669  40.6515334  16.8209450  55.9429453  30.0425722
  15.9335305  56.2279104  29.8245916  17.2363439  55.7823216  29.1952998
  20.1723986  55.9675974  33.7580061  20.9484376  56.4572426  34.0304678
  19.4472120  56.3934028  34.2151930  22.6096544  56.6803593  34.8154001
  23.2041035  56.4399329  34.1047310  22.6823128  55.9610724  35.4427538
   4.8293700  70.5237204  35.1297166   4.6948168  69.7637605  34.5635164
   4.4125762  71.2478104  34.6625955  15.9652663  65.7074128  24.1373742
  16.6688513  65.9124130  24.7531397  15.2415312  66.2750890  24.4022825
  16.7950473  61.4583989  30.2576012  16.7385675  61.9152540  29.4183644
  17.3478816  60.6974674  30.0798854  20.6055279  57.2473721  31.0826131
  20.3492214  56.8470356  31.9134339  19.9808147  57.9617515  30.9576270
  24.9167617  59.9869794  33.5897423  24.3567175  60.0562983  34.3628985
  24.3111121  59.8110779  32.8696919   7.9862826  71.4206521  35.3415609
   7.8695210  72.3651954  35.2394299   7.1655272  71.1180083  35.7301408
  17.8739361  66.1456657  26.1872202  18.7084964  65.7137855  26.0049676
  17.7123703  65.9738671  27.1149096  17.5285253  62.6488770  27.5528541
  17.4734056  62.4833042  26.6116985  16.9031308  63.3564803  27.7090731
   2.3177768  57.8856835  41.3789963   2.9636631  57.3755789  41.8677188
   2.1094919  58.6225516  41.9533388  14.8431160  64.9537682  46.8782104
  15.7122319  65.1278334  46.5168739  14.3637911  65.7732099  46.7557833
  10.8381378  52.1496879  27.1313859  10.8260048  53.0938719  27.2882130
  11.7304800  51.9667025  26.8373320   9.0117340  72.0734783  38.5571537
   9.9144587  72.1058393  38.8738032   8.7854710  71.1435234  38.5717873
  10.7670942  70.8265770  35.2181616   9.8166573  70.8267631  35.1045988
  11.0703428  70.0798504  34.7017651  14.6533498  48.7439656  31.3859796
  13.8865893  48.1898143  31.5316478  15.0644203  48.8161525  32.2473948
   6.6575259  55.0324452  45.4764977   7.5206720  54.6761256  45.6868302
   6.0840669  54.6938346  46.1640382  26.5023636  76.6626308  36.2827378
  27.1402046  76.5433055  35.5790718  26.3844478  77.6107152  36.3415330
  23.3113342  76.6153736  36.2188903  22.9731853  76.4994801  35.3309438
  24.1803110  76.2144901  36.1989909  19.1700158  78.4689213  32.2085794
  18.6065023  78.3779149  31.4402082  19.0552553  77.6489117  32.6888286
  23.7933125  77.7688588  42.1775109  23.7821766  77.3741386  41.3055612
  23.9553764  77.0354660  42.7708880  16.7164590  79.9640404  35.0470014
  17.5085881  79.6231229  34.6316314  16.9561240  80.0735379  35.9672168
  24.7499716  82.1360180  27.5200259  24.0987696  82.7214261  27.1334273
  25.5444079  82.6666375  27.5795296  18.6755343  79.2249317  27.9187393
  19.4486219  78.6778304  27.7800269  19.0280742  80.0893567  28.1301855
  20.5140386  80.5525700  41.1254293  20.2230252  81.4571330  41.0100959
  21.1497370  80.5942227  41.8398362  21.4396593  77.9302548  37.7155652
  22.0360165  77.7058571  37.0012615  21.4971564  77.1887294  38.3181100
  21.0121621  75.3841983  25.5505843  21.2647142  74.8623505  24.7889306
  20.0746180  75.2208129  25.6532527  26.0564904  74.3877762  33.3580586
  26.8427993  73.9697185  33.0071003  26.3203608  75.2923854  33.5262235
  26.2274981  79.8250612  28.0569243  25.5920814  79.8985239  28.7690148
  25.8972388  80.4144211  27.3788322  31.4573331  74.3252995  34.2613565
  32.1898503  73.7552212  34.4951394  30.7012687  73.9374595  34.7020070
  20.7317910  77.2870089  27.7530218  20.6154168  76.6114993  28.4211302
  20.8420170  76.8002463  26.9362371  23.0749451  76.7480237  31.4576907
  22.7107658  76.2210858  32.1689829  23.9316567  76.3578706  31.2843393
  28.9798752  68.0374569  38.7208173  28.6482076  68.9069980  38.4969388
  28.3844365  67.7210853  39.4002204  22.7154938  71.7770136  26.4538256
  22.8829340  72.6450373  26.8208727  22.5252107  71.9397418  25.5299545
  25.4730271  80.2387115  38.1204086  25.1730994  81.1412154  38.0119893
  25.1281331  79.9719298  38.9725239  18.9242753  76.6900912  34.1540791
  17.9993249  76.5577126  34.3618482  19.1727166  77.4695131  34.6510733
  28.8727415  72.7569655  35.8001524  27.9644292  72.6885064  35.5060284
  28.8215011  73.2341600  36.6283349  22.6944159  74.2327794  27.4384923
  22.5743784  74.6784845  28.2770403  21.9996747  74.5813111  26.8798461
  16.2851564  76.3334186  34.9884580  16.4143945  76.5868664  35.9023991
  15.6049015  76.9261894  34.6689235  20.4551051  87.0031435  31.0875054
  20.3775081  87.9539261  31.1663534  19.8512694  86.6577308  31.7449980
  22.9468281  74.1759301  43.7436421  22.1701615  74.7353221  43.7339285
  23.5858844  74.6616084  44.2651291  30.7389061  70.9586094  37.5779397
  30.0963442  71.2518627  36.9319192  30.2343990  70.8439014  38.3832594
  28.3929225  74.7049267  28.2665257  29.3047081  74.9376654  28.0912954
  27.8838872  75.2886311  27.7040335  21.2014653  76.9844754  43.3054388
  21.9429337  77.5229798  43.0289211  20.4951638  77.6111043  43.4625940
  26.6769993  79.1273895  41.9026549  27.0853349  78.6856305  41.1581182
  25.9547254  78.5526522  42.1560742  23.0301063  74.0646502  39.2760106
  23.8762258  74.4885915  39.4194755  22.9699700  73.4080126  39.9698669
  26.9998807  79.6875085  35.6578838  26.3707670  79.8520799  34.9554906
  26.6124469  80.1016695  36.4289802  30.8788039  80.6229523  33.0123202
  30.1939077  81.0028425  32.4620235  30.9631888  81.2324850  33.7455150
  26.1800508  71.7250870  40.9341280  25.9361440  72.4792930  40.3975556
  26.4560438  72.1036217  41.7688527  28.1338971  78.2689482  39.6118545
  28.3455866  78.9121242  38.9352927  28.0868719  77.4351799  39.1440476
  25.7365200  70.8807303  36.5155118  24.8749679  71.1788556  36.8071855
  25.7627634  71.0977702  35.5836150  22.5526769  79.4249493  32.9228923
  23.0165115  79.7037196  32.1333546  22.2883567  78.5232938  32.7402014
  19.4450850  78.9720975  35.8608687  20.0152207  79.4008243  35.2226171
  20.0358962  78.6903560  36.5592872  21.4895655  75.5472646  29.7318488
  22.1919699  75.9993689  30.1992415  21.1576284  74.9056465  30.3598382
  19.9376017  74.1384402  44.1069698  19.3074677  74.8200683  44.3405095
  19.8312105  74.0267484  43.1622836  15.2320989  73.8056198  35.0335622
  14.4420043  74.0613727  34.5575733  15.7232237  74.6204536  35.1387663
  29.2484799  81.1461438  37.7840903  30.0702242  80.7441625  37.5023584
  29.2447202  81.0429672  38.7357019  17.1835735  74.1700778  31.9919099
  16.3866898  74.2819472  32.5102594  16.9561327  74.5087430  31.1259989
  23.0141402  80.6945481  39.9401613  23.0785835  81.1565888  40.7759785
  22.3052326  80.0642846  40.0683923  13.5158692  74.0586689  37.4650613
  13.7666731  74.9433699  37.7308189  14.0518241  73.8791290  36.6925705
  37.3390792  77.4900186  34.1325874  36.5854500  76.9207584  33.9769879
  37.4738333  77.4562851  35.0796509  22.7289420  82.3613588  29.8080594
  22.5935095  83.2065124  30.2365441  23.2699232  82.5632866  29.0446527
  19.2156759  68.4405168  46.4694949  18.8223705  67.8871367  47.1442593
  20.0322900  68.7515747  46.8601466  16.1818817  79.8789026  30.3808519
  16.6943338  80.6732277  30.5314083  16.8341530  79.1815317  30.3142120
  17.9913702  82.9954783  32.4631272  18.1680330  83.9172747  32.2752256
  18.7870535  82.6813202  32.8925652  22.1324720  69.8563047  44.0615205
  22.8734434  70.4570201  43.9819668  22.3642643  69.1140685  43.5033248
  17.2766058  75.0419415  42.3393435  17.1619574  74.1404672  42.6400534
  16.4210576  75.2883111  41.9878252  24.3557896  82.9837155  43.9380936
  23.9121750  82.1973534  43.6201840  25.0175110  83.1716305  43.2724826
  19.1145017  84.5132957  38.4641614  19.6652442  84.3850020  37.6918608
  18.2756493  84.8127846  38.1136507  26.4539134  83.2639955  41.9662337
  26.4357610  84.0848836  41.4742606  27.3759054  83.1394030  42.1912478
  22.9112188  80.7784084  42.8085845  23.4440525  80.0172373  42.5785153
  22.3826270  80.4857736  43.5510000  26.0781883  65.8844150  38.3379487
  25.7346153  66.7745792  38.2618598  26.4460846  65.6945808  37.4749072
  14.1467734  78.2077681  31.1568089  14.9842956  78.6174689  30.9401797
  14.3246002  77.2677123  31.1268283  26.0432166  75.8752761  26.8451922
  25.5278790  76.6457366  27.0840310  25.7709475  75.2017898  27.4684984
  23.6279277  70.7202462  31.9037161  22.7720873  70.3309313  31.7242799
  24.0406229  70.7994423  31.0436946  25.1578424  68.2548805  36.3028720
  24.6543219  68.2178941  35.4896526  25.4509031  69.1641548  36.3625377
  21.4021310  68.3387535  35.3094902  22.2674306  68.1430344  34.9500792
  21.4698819  68.1097887  36.2364259  31.0166440  78.6285116  28.7805096
  30.2395883  78.2896276  28.3360258  31.6957921  78.6337739  28.1060061
  25.8318469  73.7479854  28.6711703  25.5268605  74.0626003  29.5221847
  26.7848911  73.8261273  28.7139036  24.2764901  79.9070077  30.3204657
  23.7486263  79.1722836  30.0077895  23.7752404  80.6844753  30.0744626
  29.2557747  78.1019097  35.4371704  28.5981422  78.7918359  35.5251832
  30.0598146  78.4915529  35.7805690  19.0083629  70.5689743  32.6811269
  19.5827381  70.3464925  31.9484462  19.5954611  70.6378438  33.4339870
  28.0663206  76.4563470  33.4875645  28.5795088  77.0893462  33.9897355
  28.7164430  75.8564666  33.1219005  19.3353216  72.5994204  26.7007154
  18.4990528  72.9368891  27.0216429  19.1957985  72.4643184  25.7634291
  21.3106296  67.4430992  31.4086338  20.6570709  67.1280009  30.7842953
  21.2686771  66.8206732  32.1346161  22.4217501  77.7250287  23.3239630
  21.5144563  77.4939541  23.5230779  22.9188533  76.9287906  23.5113612
  25.3285580  86.4347794  26.2436317  24.6547279  86.7379491  26.8521274
  25.7151402  87.2376875  25.8941774  24.5444037  73.9312926  35.7333986
  23.6266598  74.1527873  35.5755674  24.9604180  74.0059236  34.8745693
  25.3279085  75.3304341  30.8636666  26.0750904  75.8425738  30.5543788
  25.5970674  75.0088394  31.7241060  23.6005735  77.8262882  27.8463620
  22.6916954  77.5421915  27.9436090  23.6300819  78.2461961  26.9866927
  28.8325002  81.4369471  31.6154788  28.3787329  80.5960381  31.6719979
  28.2018969  82.0730870  31.9529568  27.7757922  72.3661458  32.8455455
  27.0380679  71.8538844  33.1765698  28.0284695  71.9261839  32.0338732
  27.2757941  83.2745968  32.5504606  27.5680916  83.8351025  31.8316972
  27.7856562  83.5674529  33.3057765  27.8769549  65.1437710  33.4397225
  28.1828426  64.2835073  33.1523140  28.6022154  65.7355330  33.2396219
  14.1693905  75.5468396  31.8278823  13.9718305  74.9537757  31.1029889
  13.6140569  75.2420606  32.5454761  22.1490629  75.4391503  33.9473416
  22.2039239  74.4865339  33.8715892  21.3381831  75.5950942  34.4314714
  23.2981823  79.3671626  25.1851699  22.8601252  78.6507485  24.7257336
  24.0392263  79.5947740  24.6236790  20.0882989  74.0568562  31.7063795
  19.2750854  74.3562733  32.1128987  20.5841983  73.6624251  32.4238277
  22.2391567  84.0526319  33.6398059  22.1967745  84.2787166  32.7106591
  23.1554265  83.8189694  33.7883861  25.6857200  74.5210387  40.5378689
  26.0406588  74.7481860  41.3973154  26.3329332  74.8528764  39.9155944
  31.4154937  77.6428823  31.2428018  31.2772836  77.8330419  30.3149207
  31.0591156  78.4048206  31.6996069  19.5797063  71.6286918  37.3225030
  20.2196443  71.4875677  36.6247993  18.7474594  71.3421431  36.9463632
  31.4424317  79.7105350  36.2539289  31.8760824  79.6180639  37.1022343
  32.1555898  79.6862850  35.6159305  20.3557367  80.9289348  33.4360022
  21.1497966  80.4339668  33.2342597  19.6449060  80.4007211  33.0727728
  25.1752212  83.3107444  37.7872390  25.2289234  83.8798380  38.5550106
  24.3066993  83.4809329  37.4226427  16.6640131  75.0732430  29.5119775
  15.7337719  75.0116885  29.7289737  16.7597603  74.5508383  28.7156416
  16.5825680  71.5987243  32.0998016  16.8432497  72.5132576  31.9907177
  17.4042852  71.1311685  32.2494629  18.0550605  73.0125000  39.2696841
  18.7273659  72.8042362  38.6209490  17.2280392  72.8147086  38.8302073
  32.3039866  79.7529050  38.7872175  32.4975757  80.6574861  39.0331449
  32.2040485  79.2936469  39.6210760  23.9576177  69.6386941  41.2862502
  23.3104092  70.3376891  41.1926978  24.7277193  70.0723085  41.6538750
  27.3654975  79.9035793  44.3613055  27.2140482  79.6746345  43.4443139
  27.3559655  80.8606395  44.3744400  24.1340312  77.4767706  39.3459322
  25.0632372  77.6278865  39.1728289  23.7131342  77.5651727  38.4907968
  22.9328643  81.5018370  37.1157859  22.7939729  81.1337155  37.9883797
  22.1443240  82.0166010  36.9441817  23.5276795  86.6027467  28.4583396
  23.7028551  86.1315510  29.2729018  22.8409583  87.2293233  28.6864656
  24.4833859  80.8799973  34.5046697  24.1483691  80.8400743  35.4004347
  23.9837804  80.2144689  34.0317107  18.4578102  76.2867603  40.0299278
  18.3197900  75.5547842  40.6310817  19.3683026  76.1976503  39.7483466
  27.4193050  78.2256007  24.7783757  26.8022221  77.5002835  24.6816809
  26.9509539  78.9865368  24.4350831  21.0860403  75.9987562  39.5182958
  21.7960022  75.3580755  39.4769576  21.0429711  76.2500457  40.4409139
  29.0747182  82.9354916  42.4389537  29.0159728  82.2514136  41.7720120
  29.4766700  83.6773906  41.9870163  19.7989337  72.9852780  41.3378597
  19.2626694  72.5343519  41.9900194  19.2106046  73.1198689  40.5949062
  18.0937881  89.7516829  35.2323256  18.3334479  90.3835354  35.9102274
  17.2507077  89.4004870  35.5188615  19.2091596  72.4441432  23.9005061
  18.3321062  72.3230232  23.5367308  19.6849349  71.6527510  23.6483950
  29.0764589  80.8994500  40.6703517  28.1891368  80.5620421  40.7929916
  29.6463140  80.1677531  40.9072282  10.7293736  77.2318591  33.9946568
  11.4164776  76.9180321  33.4067583  10.5741865  78.1359956  33.7213819
  15.5328458  72.1208788  38.4231592  15.4486647  71.5134457  37.6882002
  14.7111165  72.6117806  38.4241088  22.6065742  85.5595952  37.6364760
  22.5335914  86.3650923  38.1484064  22.1643136  85.7587918  36.8112781
  22.3955522  84.7967722  31.1467581  21.6123044  85.3389402  31.2405806
  23.0948267  85.3141702  31.5461823  25.7052172  70.6062351  33.7901787
  26.2020872  69.8532314  33.4702857  24.9339154  70.6426668  33.2244996
  33.5581930  76.3102717  35.4320078  33.5471806  77.1927432  35.0614011
  32.6899309  75.9574268  35.2374615  25.0664426  85.4582786  39.7922919
  25.7792398  86.0930251  39.7198820  24.5754455  85.5546652  38.9762920
  26.7881953  79.3634039  31.3640210  25.8538232  79.4835501  31.1944915
  26.9658621  78.4606505  31.1000220  22.2887141  72.7479734  33.5173471
  21.9184928  72.1950775  34.2054377  22.7846233  72.1437868  32.9648471
  30.1754504  75.2051358  31.8990244  30.6414956  76.0379350  31.8250547
  30.6262005  74.7396339  32.6035503  20.1176340  83.2077229  40.6128489
  20.8185799  83.8413712  40.7657884  19.6471455  83.5491961  39.8524129
  28.2430735  81.5495179  28.8976396  28.5190579  81.4351774  29.8070270
  27.3735234  81.1512664  28.8588569  28.1471167  67.5731945  35.9381146
  27.2334247  67.8036172  36.1063353  28.5764268  67.6570389  36.7895178
  27.9177625  75.7621837  38.4381040  27.2649076  76.0097744  37.7833492
  28.2958005  74.9485975  38.1043517  24.8784799  85.7981530  32.5409210
  25.0607194  84.9803186  33.0036962  25.7017785  86.0149222  32.1034100
  25.2126965  84.7249715  29.8024259  25.7414731  84.2142170  29.1894421
  25.4755184  84.4092245  30.6669792  23.9665199  76.5041648  44.9247077
  23.2905836  76.4035777  45.5949452  24.7892832  76.3480862  45.3883074
  15.7144058  82.7413584  37.5459592  16.2997494  81.9957272  37.6787496
  15.5168896  83.0517541  38.4296256  18.5682713  85.7764832  32.5622034
  17.8993088  86.2610959  32.0786074  18.4295583  86.0234052  33.4765413
  10.3061712  75.3119185  36.2664035  10.3445812  74.7782775  37.0601153
   9.8002005  74.7854390  35.6475012  22.7087981  87.8108575  39.1604693
  23.2606289  87.9740197  39.9253778  23.0494175  88.4013013  38.4884718
  17.6852475  70.1583725  39.7626577  17.7493801  71.0198556  39.3503975
  17.6219595  69.5457727  39.0298936  17.1604747  72.2306858  43.4099612
  17.7876786  71.8483935  44.0237136  16.3032666  72.0121060  43.7755304
  27.5598856  82.6369833  45.0153347  28.1038760  83.2499791  44.5208302
  26.9785701  83.1949411  45.5320360  13.9370290  74.0383287  29.3417967
  14.2323731  73.1293965  29.2885020  13.0358326  74.0171026  29.0198969
  25.8456369  85.7590551  36.1468375  25.7207508  84.9580291  35.6379320
  26.5035460  86.2536744  35.6582345  17.4664537  72.1139283  35.3245515
  16.7451123  72.7275251  35.1852988  18.2557793  72.6497048  35.2462161
  27.9091277  83.5599571  37.7747925  26.9621613  83.4404922  37.7026252
  28.2574050  82.6722069  37.8574186  20.2690850  69.4493710  41.5986167
  20.7925252  69.6956006  42.3612476  20.0503184  70.2813745  41.1789304
  15.6658131  71.7197384  29.4657292  15.3370838  70.8394763  29.2832398
  16.0197502  71.6645053  30.3533681  24.9137710  83.3552287  33.9752277
  24.7662673  82.4268995  34.1559847  25.7391204  83.3772378  33.4909353
  18.7799955  72.0070354  29.8332769  19.1196027  72.5356276  29.1111378
  19.2272075  72.3450760  30.6091336  28.5171832  84.1780846  35.0617150
  29.4418380  83.9723707  34.9241601  28.3487136  83.9297247  35.9706492
  21.4743395  70.3907405  39.2835837  21.1340216  69.5915218  39.6856517
  20.7682402  70.6909116  38.7112671  22.1259867  67.4756717  37.7363160
  22.9485937  67.0017196  37.6142051  22.3697931  68.2547201  38.2361847
  20.7668102  70.5044976  28.0326062  21.4876464  70.8826229  27.5289779
  20.1433406  71.2233853  28.1361040  24.9099225  71.2090125  28.9684395
  25.1262839  72.0914763  28.6673223  24.4293292  70.8176338  28.2390037
  19.6498446  74.1675838  35.5455139  19.5043027  74.4816141  36.4379421
  19.1723650  74.7860738  34.9926038  21.5094829  71.1578386  35.5936029
  21.4956398  70.2619479  35.2568327  22.2267257  71.1649050  36.2274315
  23.3620960  71.5915726  37.6389156  23.1038737  72.5132797  37.6373487
  22.8306000  71.1946161  38.3289620  28.3067148  84.6966513  30.4179241
  28.4804026  84.1312936  29.6653094  28.7996040  85.4967408  30.2358731
  14.1244108  76.7081182  38.4842800  13.5797576  77.4840990  38.6163075
  15.0023458  77.0551987  38.3261922  20.9131725  70.0392766  30.8623599
  21.0347636  69.1109413  31.0614486  20.6233767  70.0531452  29.9501914
  23.7822915  67.7247677  33.9990319  23.8044612  67.7887010  33.0442298
  24.1990974  66.8852185  34.1930825  34.1606540  77.4602936  32.0369541
  34.6037686  76.7110262  31.6388664  33.2833050  77.4513073  31.6543273
  29.2942321  84.0133278  27.5176140  29.9893226  84.6339970  27.7363454
  29.6365471  83.1628629  27.7928518  14.9110130  75.8351079  41.3772957
  14.1691866  75.9833714  41.9637588  14.5902874  76.0959344  40.5139707
  31.1933744  81.4632983  29.0463471  31.7185068  81.8020256  28.3212791
  31.1056097  80.5279999  28.8626605  22.8553793  85.3767057  41.1753347
  23.1640919  85.1316204  42.0476047  23.6529275  85.5813695  40.6872217
  22.8774405  87.5304967  33.4058724  22.4379395  87.0381345  34.0991580
  23.6282522  86.9877934  33.1650799  15.3566744  83.7216507  33.4083352
  16.1824764  83.4220279  33.0281995  15.0060796  82.9524130  33.8573140
  20.3248277  83.0742976  35.4781025  19.7028286  82.4113681  35.1783253
  20.9953144  83.1004108  34.7954673  13.5575349  81.6402834  34.3672285
  12.7207257  81.2125008  34.1856287  13.5298994  81.8335277  35.3043077
  20.3972804  71.5524764  45.0713531  20.4460960  72.4286887  44.6891301
  20.9395319  71.0102157  44.4985175  30.8827650  82.0965887  44.3514668
  30.0923194  82.0790026  43.8119168  30.6461005  82.6354181  45.1063705
  31.0025525  78.9458353  41.6647397  31.0523530  78.7808361  42.6062920
  30.8939448  78.0785612  41.2745278  19.8861784  81.6246899  28.9539486
  20.0349904  82.3082363  28.3006159  20.6928227  81.6051989  29.4688942
  28.2929288  74.9289281  42.9806704  29.1939150  74.7895746  42.6890702
  28.3677262  75.0943736  43.9204881  22.6272093  72.3056136  41.8259890
  21.7575402  72.5989702  41.5542479  22.8631573  72.8896581  42.5467154
  32.5043722  81.3655295  41.9089419  32.2128530  81.7285275  42.7452880
  31.8915853  80.6522303  41.7302751  33.7039404  78.9308175  34.4291989
  34.5386296  79.3697979  34.5929549  33.8398533  78.4546828  33.6100235
  30.7530910  76.4887909  40.3769477  31.2285032  76.6815556  39.5688328
  29.8296476  76.5447095  40.1312860  17.6414417  77.6512077  29.9600555
  17.3960459  76.7474407  30.1580765  17.8110331  77.6529227  29.0180033
  25.3311127  68.5235753  39.3425310  25.8493071  69.2596780  39.0171799
  24.9766259  68.8299746  40.1772070  16.9110064  73.3840434  27.4586716
  16.2179309  73.4584789  26.8026752  16.6661816  72.6200778  27.9808233
  25.5823721  64.9436036  34.8626207  25.8625475  64.2759225  35.4886634
  26.3674328  65.1365131  34.3500871  23.3857189  84.1195029  26.4251233
  22.8131156  84.7385217  25.9721705  23.9589983  84.6694391  26.9591155
  29.4532579  73.3653670  38.6097782  30.4050002  73.4651767  38.6310006
  29.2836030  72.5731938  39.1195867  27.4746959  70.4509253  38.7957183
  26.8796891  70.7314266  38.1003672  27.1896655  70.9403154  39.5673924
  26.6054449  84.4032180  27.5559816  27.5385122  84.3377741  27.7592691
  26.5177662  85.2388446  27.0974348  29.2342466  83.7198050  24.5163763
  29.1556097  83.3857914  25.4099521  30.0552133  84.2119818  24.5155236
  31.9320657  76.5859789  37.7240082  31.8996977  75.6475790  37.9099766
  32.5421281  76.6643826  36.9905907  23.7703988  75.4555842  23.7667286
  24.7163093  75.3262050  23.8355704  23.3918233  74.7170504  24.2436714
  32.0815145  73.3770833  37.7698365  31.5654194  72.5929289  37.5828294
  32.9655094  73.0489549  37.9344884  29.7425872  67.1211848  33.7294178
  29.5450694  66.8126936  34.6137510  30.3525578  67.8473487  33.8592108
  37.7497207  77.6475796  36.8646119  38.4800595  77.3861084  37.4253822
  37.1404152  76.9104518  36.9048187  35.8312504  75.7883659  37.4620570
  35.1045668  75.6539624  36.8537061  35.4159791  76.0960487  38.2677288
  23.6542680  79.5073588  45.2267943  24.5745690  79.6852187  45.4207989
  23.6192263  78.5629634  45.0747642  21.9546905  73.3805819  23.7022171
  21.0478360  73.0838931  23.7784885  22.2322886  73.0835637  22.8356457
  12.8724845  74.7012182  34.1521217  12.5527630  73.8477490  33.8595591
  12.3258274  74.9160760  34.9079185  16.6504753  77.4174623  37.8690724
  16.8690763  78.3491731  37.8878758  17.0630527  77.0582597  38.6545528
  23.5708971  67.9242708  29.8566412  22.7609699  67.5789793  30.2321658
  24.2593388  67.6150252  30.4454024  25.4999519  67.0020755  31.4790709
  26.0530558  67.4216209  32.1380732  25.7369605  66.0756503  31.5213665
  21.5232618  72.9907829  47.2593473  21.4229345  73.9402186  47.1905564
  21.3054160  72.6626068  46.3869543  20.7245690  70.2392754  23.8434150
  21.5864854  70.5647652  24.1029968  20.9096034  69.4524250  23.3307216
  12.7413105  78.3215094  36.1214339  12.0476577  77.9069046  35.6084293
  13.4886096  78.3635630  35.5247758  28.8778326  69.1121280  30.9869373
  28.2976995  69.7706084  30.6047426  28.6114259  68.2898625  30.5756791
  27.3281892  68.5126338  33.1890694  27.8281671  68.6242873  32.3805012
  27.9717500  68.2087391  33.8291502  21.3863888  76.4204968  46.0758535
  20.9030970  77.2205328  46.2822424  21.4724827  76.4312912  45.1225979
  14.6549848  78.2533347  33.9980354  14.6320536  78.3521035  33.0462237
  14.9650484  79.0998498  34.3197520  17.3137226  80.3109502  38.1126968
  18.2680479  80.2793445  38.0456900  17.1149749  79.8500126  38.9277194
  17.9036608  78.8810618  40.6797766  18.7229497  79.3754697  40.7032603
  18.1773416  77.9642587  40.6515334  27.6603204  71.2721371  30.0425722
  26.7729059  71.5571021  29.8245916  28.0757193  71.1115134  29.1952998
  31.0117740  71.2967892  33.7580061  31.7878130  71.7864344  34.0304678
  30.2865874  71.7225946  34.2151930  33.4490299  72.0095511  34.8154001
  34.0434790  71.7691247  34.1047310  33.5216883  71.2902641  35.4427538
  15.6687455  85.8529122  35.1297166  15.5341923  85.0929523  34.5635164
  15.2519517  86.5770022  34.6625955  26.8046418  81.0366045  24.1373742
  27.5082268  81.2416048  24.7531397  26.0809066  81.6042807  24.4022825
  27.6344228  76.7875907  30.2576012  27.5779429  77.2444458  29.4183644
  28.1872570  76.0266591  30.0798854  31.4449034  72.5765638  31.0826131
  31.1885968  72.1762274  31.9134339  30.8201902  73.2909432  30.9576270
  35.7561372  75.3161712  33.5897423  35.1960930  75.3854901  34.3628985
  35.1504875  75.1402696  32.8696919  18.8256580  86.7498439  35.3415609
  18.7088965  87.6943871  35.2394299  18.0049027  86.4472000  35.7301408
  28.7133115  81.4748575  26.1872202  29.5478719  81.0429773  26.0049676
  28.5517458  81.3030588  27.1149096  28.3679007  77.9780688  27.5528541
  28.3127811  77.8124959  26.6116985  27.7425062  78.6856721  27.7090731
  13.1571522  73.2148752  41.3789963  13.8030386  72.7047706  41.8677188
  12.9488673  73.9517434  41.9533388  25.6824914  80.2829600  46.8782104
  26.5516074  80.4570252  46.5168739  25.2031666  81.1024017  46.7557833
  21.6775133  67.4788797  27.1313859  21.6653802  68.4230637  27.2882130
  22.5698555  67.2958942  26.8373320  19.8511095  87.4026701  38.5571537
  20.7538341  87.4350311  38.8738032  19.6248465  86.4727152  38.5717873
  21.6064697  86.1557687  35.2181616  20.6560328  86.1559549  35.1045988
  21.9097183  85.4090422  34.7017651  25.4927252  64.0731574  31.3859796
  24.7259648  63.5190060  31.5316478  25.9037957  64.1453442  32.2473948
  17.4969013  70.3616369  45.4764977  18.3600475  70.0053174  45.6868302
  16.9234424  70.0230264  46.1640382  37.3417390  91.9918226  36.2827378
  37.9795800  91.8724973  35.5790718  37.2238233  92.9399070  36.3415330
  34.1507096  91.9445654  36.2188903  33.8125608  91.8286718  35.3309438
  35.0196865  91.5436819  36.1989909  30.0093912  93.7981130  32.2085794
  29.4458777  93.7071067  31.4402082  29.8946307  92.9781035  32.6888286
  34.6326879  93.0980506  42.1775109  34.6215520  92.7033304  41.3055612
  34.7947519  92.3646578  42.7708880  27.5558344  95.2932322  35.0470014
  28.3479636  94.9523146  34.6316314  27.7954994  95.4027297  35.9672168
  35.5893471  97.4652098  27.5200259  34.9381451  98.0506178  27.1334273
  36.3837834  97.9958293  27.5795296  29.5149098  94.5541235  27.9187393
  30.2879974  94.0070222  27.7800269  29.8674497  95.4185484  28.1301855
  31.3534140  95.8817617  41.1254293  31.0624006  96.7863248  41.0100959
  31.9891125  95.9234145  41.8398362  32.2790347  93.2594466  37.7155652
  32.8753920  93.0350488  37.0012615  32.3365319  92.5179211  38.3181100
  31.8515376  90.7133901  25.5505843  32.1040896  90.1915422  24.7889306
  30.9139935  90.5500047  25.6532527  36.8958659  89.7169680  33.3580586
  37.6821748  89.2989103  33.0071003  37.1597363  90.6215772  33.5262235
  37.0668736  95.1542530  28.0569243  36.4314569  95.2277156  28.7690148
  36.7366142  95.7436129  27.3788322  42.2967086  89.6544913  34.2613565
  43.0292258  89.0844130  34.4951394  41.5406441  89.2666513  34.7020070
  31.5711664  92.6162007  27.7530218  31.4547923  91.9406910  28.4211302
  31.6813924  92.1294381  26.9362371  33.9143205  92.0772154  31.4576907
  33.5501413  91.5502775  32.1689829  34.7710321  91.6870623  31.2843393
  39.8192506  83.3666487  38.7208173  39.4875831  84.2361898  38.4969388
  39.2238119  83.0502771  39.4002204  33.5548692  87.1062054  26.4538256
  33.7223095  87.9742290  26.8208727  33.3645861  87.2689336  25.5299545
  36.3124026  95.5679033  38.1204086  36.0124749  96.4704072  38.0119893
  35.9675085  95.3011216  38.9725239  29.7636507  92.0192830  34.1540791
  28.8387004  91.8869044  34.3618482  30.0120920  92.7987049  34.6510733
  39.7121169  88.0861573  35.8001524  38.8038047  88.0176981  35.5060284
  39.6608765  88.5633518  36.6283349  33.5337913  89.5619711  27.4384923
  33.4137538  90.0076762  28.2770403  32.8390502  89.9105029  26.8798461
  27.1245318  91.6626103  34.9884580  27.2537699  91.9160582  35.9023991
  26.4442769  92.2553811  34.6689235  31.2944805 102.3323353  31.0875054
  31.2168835 103.2831178  31.1663534  30.6906449 101.9869226  31.7449980
  33.7862035  89.5051219  43.7436421  33.0095369  90.0645139  43.7339285
  34.4252598  89.9908002  44.2651291  41.5782816  86.2878011  37.5779397
  40.9357196  86.5810545  36.9319192  41.0737744  86.1730932  38.3832594
  39.2322979  90.0341185  28.2665257  40.1440836  90.2668571  28.0912954
  38.7232627  90.6178229  27.7040335  32.0408407  92.3136672  43.3054388
  32.7823092  92.8521716  43.0289211  31.3345393  92.9402961  43.4625940
  37.5163747  94.4565812  41.9026549  37.9247103  94.0148223  41.1581182
  36.7941009  93.8818440  42.1560742  33.8694817  89.3938419  39.2760106
  34.7156012  89.8177833  39.4194755  33.8093455  88.7372044  39.9698669
  37.8392562  95.0167003  35.6578838  37.2101424  95.1812717  34.9554906
  37.4518224  95.4308613  36.4289802  41.7181794  95.9521441  33.0123202
  41.0332832  96.3320342  32.4620235  41.8025643  96.5616768  33.7455150
  37.0194262  87.0542788  40.9341280  36.7755194  87.8084848  40.3975556
  37.2954193  87.4328135  41.7688527  38.9732725  93.5981400  39.6118545
  39.1849620  94.2413160  38.9352927  38.9262473  92.7643716  39.1440476
  36.5758954  86.2099221  36.5155118  35.7143433  86.5080474  36.8071855
  36.6021389  86.4269619  35.5836150  33.3920524  94.7541411  32.9228923
  33.8558869  95.0329114  32.1333546  33.1277322  93.8524856  32.7402014
  30.2844605  94.3012893  35.8608687  30.8545962  94.7300161  35.2226171
  30.8752717  94.0195477  36.5592872  32.3289410  90.8764564  29.7318488
  33.0313453  91.3285607  30.1992415  31.9970038  90.2348382  30.3598382
  30.7769771  89.4676320  44.1069698  30.1468432  90.1492601  44.3405095
  30.6705859  89.3559402  43.1622836  26.0714744  89.1348116  35.0335622
  25.2813798  89.3905645  34.5575733  26.5625991  89.9496454  35.1387663
  40.0878553  96.4753355  37.7840903  40.9095997  96.0733543  37.5023584
  40.0840956  96.3721590  38.7357019  28.0229489  89.4992695  31.9919099
  27.2260652  89.6111390  32.5102594  27.7955081  89.8379348  31.1259989
  33.8535157  96.0237399  39.9401613  33.9179589  96.4857806  40.7759785
  33.1446081  95.3934764  40.0683923  24.3552447  89.3878607  37.4650613
  24.6060485  90.2725617  37.7308189  24.8911995  89.2083208  36.6925705
  48.1784546  92.8192104  34.1325874  47.4248255  92.2499502  33.9769879
  48.3132087  92.7854768  35.0796509  33.5683174  97.6905506  29.8080594
  33.4328849  98.5357042  30.2365441  34.1092987  97.8924784  29.0446527
  30.0550514  83.7697086  46.4694949  29.6617459  83.2163285  47.1442593
  30.8716654  84.0807664  46.8601466  27.0212572  95.2080944  30.3808519
  27.5337092  96.0024194  30.5314083  27.6735285  94.5107235  30.3142120
  28.8307456  98.3246700  32.4631272  29.0074085  99.2464665  32.2752256
  29.6264290  98.0105120  32.8925652  32.9718475  85.1854965  44.0615205
  33.7128188  85.7862118  43.9819668  33.2036398  84.4432603  43.5033248
  28.1159813  90.3711332  42.3393435  28.0013328  89.4696590  42.6400534
  27.2604331  90.6175029  41.9878252  35.1951651  98.3129073  43.9380936
  34.7515505  97.5265451  43.6201840  35.8568864  98.5008223  43.2724826
  29.9538772  99.8424874  38.4641614  30.5046197  99.7141938  37.6918608
  29.1150248 100.1419763  38.1136507  37.2932889  98.5931873  41.9662337
  37.2751364  99.4140754  41.4742606  38.2152809  98.4685948  42.1912478
  33.7505943  96.1076002  42.8085845  34.2834280  95.3464290  42.5785153
  33.2220024  95.8149654  43.5510000  36.9175638  81.2136068  38.3379487
  36.5739907  82.1037710  38.2618598  37.2854600  81.0237726  37.4749072
  24.9861488  93.5369598  31.1568089  25.8236710  93.9466607  30.9401797
  25.1639756  92.5969041  31.1268283  36.8825921  91.2044679  26.8451922
  36.3672544  91.9749284  27.0840310  36.6103229  90.5309815  27.4684984
  34.4673032  86.0494380  31.9037161  33.6114628  85.6601230  31.7242799
  34.8799983  86.1286341  31.0436946  35.9972178  83.5840723  36.3028720
  35.4936974  83.5470858  35.4896526  36.2902785  84.4933466  36.3625377
  32.2415064  83.6679453  35.3094902  33.1068061  83.4722262  34.9500792
  32.3092573  83.4389805  36.2364259  41.8560195  93.9577034  28.7805096
  41.0789637  93.6188193  28.3360258  42.5351676  93.9629657  28.1060061
  36.6712224  89.0771771  28.6711703  36.3662359  89.3917920  29.5221847
  37.6242666  89.1553191  28.7139036  35.1158656  95.2361995  30.3204657
  34.5880017  94.5014754  30.0077895  34.6146158  96.0136671  30.0744626
  40.0951502  93.4311015  35.4371704  39.4375176  94.1210276  35.5251832
  40.8991901  93.8207447  35.7805690  29.8477383  85.8981661  32.6811269
  30.4221135  85.6756842  31.9484462  30.4348366  85.9670355  33.4339870
  38.9056960  91.7855388  33.4875645  39.4188842  92.4185380  33.9897355
  39.5558184  91.1856583  33.1219005  30.1746970  87.9286122  26.7007154
  29.3384283  88.2660808  27.0216429  30.0351740  87.7935102  25.7634291
  32.1500051  82.7722910  31.4086338  31.4964463  82.4571927  30.7842953
  32.1080525  82.1498650  32.1346161  33.2611256  93.0542205  23.3239630
  32.3538318  92.8231458  23.5230779  33.7582288  92.2579824  23.5113612
  36.1679335 101.7639712  26.2436317  35.4941033 102.0671409  26.8521274
  36.5545157 102.5668792  25.8941774  35.3837791  89.2604843  35.7333986
  34.4660353  89.4819790  35.5755674  35.7997935  89.3351154  34.8745693
  36.1672839  90.6596259  30.8636666  36.9144658  91.1717656  30.5543788
  36.4364429  90.3380312  31.7241060  34.4399489  93.1554800  27.8463620
  33.5310708  92.8713832  27.9436090  34.4694573  93.5753878  26.9866927
  39.6718757  96.7661389  31.6154788  39.2181084  95.9252299  31.6719979
  39.0412723  97.4022788  31.9529568  38.6151676  87.6953375  32.8455455
  37.8774433  87.1830761  33.1765698  38.8678450  87.2553757  32.0338732
  38.1151696  98.6037886  32.5504606  38.4074670  99.1642943  31.8316972
  38.6250316  98.8966447  33.3057765  38.7163304  80.4729627  33.4397225
  39.0222180  79.6126991  33.1523140  39.4415908  81.0647247  33.2396219
  25.0087660  90.8760314  31.8278823  24.8112059  90.2829674  31.1029889
  24.4534324  90.5712524  32.5454761  32.9884383  90.7683420  33.9473416
  33.0432993  89.8157257  33.8715892  32.1775585  90.9242859  34.4314714
  34.1375577  94.6963543  25.1851699  33.6995007  93.9799402  24.7257336
  34.8786018  94.9239658  24.6236790  30.9276743  89.3860480  31.7063795
  30.1144609  89.6854651  32.1128987  31.4235737  88.9916169  32.4238277
  33.0785321  99.3818237  33.6398059  33.0361500  99.6079083  32.7106591
  33.9948020  99.1481612  33.7883861  36.5250955  89.8502304  40.5378689
  36.8800343  90.0773778  41.3973154  37.1723086  90.1820681  39.9155944
  42.2548692  92.9720740  31.2428018  42.1166590  93.1622336  30.3149207
  41.8984911  93.7340123  31.6996069  30.4190818  86.9578836  37.3225030
  31.0590197  86.8167595  36.6247993  29.5868348  86.6713349  36.9463632
  42.2818071  95.0397267  36.2539289  42.7154578  94.9472556  37.1022343
  42.9949652  95.0154768  35.6159305  31.1951122  96.2581266  33.4360022
  31.9891720  95.7631586  33.2342597  30.4842814  95.7299129  33.0727728
  36.0145966  98.6399361  37.7872390  36.0682989  99.2090298  38.5550106
  35.1460748  98.8101247  37.4226427  27.5033885  90.4024348  29.5119775
  26.5731473  90.3408803  29.7289737  27.5991357  89.8800300  28.7156416
  27.4219434  86.9279161  32.0998016  27.6826252  87.8424494  31.9907177
  28.2436607  86.4603603  32.2494629  28.8944360  88.3416918  39.2696841
  29.5667413  88.1334280  38.6209490  28.0674146  88.1439004  38.8302073
  43.1433621  95.0820968  38.7872175  43.3369511  95.9866779  39.0331449
  43.0434239  94.6228387  39.6210760  34.7969932  84.9678859  41.2862502
  34.1497847  85.6668808  41.1926978  35.5670947  85.4015003  41.6538750
  38.2048730  95.2327711  44.3613055  38.0534236  95.0038262  43.4443139
  38.1953409  96.1898312  44.3744400  34.9734066  92.8059624  39.3459322
  35.9026126  92.9570783  39.1728289  34.5525096  92.8943644  38.4907968
  33.7722398  96.8310288  37.1157859  33.6333484  96.4629072  37.9883797
  32.9836994  97.3457927  36.9441817  34.3670550 101.9319384  28.4583396
  34.5422306 101.4607428  29.2729018  33.6803338 102.5585151  28.6864656
  35.3227613  96.2091891  34.5046697  34.9877446  96.1692661  35.4004347
  34.8231559  95.5436607  34.0317107  29.2971857  91.6159521  40.0299278
  29.1591655  90.8839759  40.6310817  30.2076780  91.5268421  39.7483466
  38.2586805  93.5547925  24.7783757  37.6415975  92.8294753  24.6816809
  37.7903293  94.3157285  24.4350831  31.9254158  91.3279480  39.5182958
  32.6353776  90.6872672  39.4769576  31.8823466  91.5792375  40.4409139
  39.9140936  98.2646833  42.4389537  39.8553482  97.5806053  41.7720120
  40.3160455  99.0065823  41.9870163  30.6383092  88.3144698  41.3378597
  30.1020449  87.8635436  41.9900194  30.0499800  88.4490607  40.5949062
  28.9331635 105.0808747  35.2323256  29.1728233 105.7127271  35.9102274
  28.0900832 104.7296787  35.5188615  30.0485351  87.7733349  23.9005061
  29.1714817  87.6522150  23.5367308  30.5243104  86.9819428  23.6483950
  39.9158344  96.2286417  40.6703517  39.0285122  95.8912339  40.7929916
  40.4856895  95.4969448  40.9072282  21.5687491  92.5610509  33.9946568
  22.2558531  92.2472239  33.4067583  21.4135619  93.4651874  33.7213819
  26.3722213  87.4500706  38.4231592  26.2880402  86.8426375  37.6882002
  25.5504919  87.9409724  38.4241088  33.4459497 100.8887870  37.6364760
  33.3729668 101.6942841  38.1484064  33.0036890 101.0879835  36.8112781
  33.2349277 100.1259640  31.1467581  32.4516798 100.6681320  31.2405806
  33.9342022 100.6433619  31.5461823  36.5445927  85.9354269  33.7901787
  37.0414626  85.1824231  33.4702857  35.7732908  85.9718586  33.2244996
  44.3975684  91.6394635  35.4320078  44.3865560  92.5219350  35.0614011
  43.5293064  91.2866185  35.2374615  35.9058180 100.7874704  39.7922919
  36.6186153 101.4222168  39.7198820  35.4148209 100.8838570  38.9762920
  37.6275707  94.6925956  31.3640210  36.6931986  94.8127419  31.1944915
  37.8052376  93.7898423  31.1000220  33.1280895  88.0771652  33.5173471
  32.7578683  87.5242692  34.2054377  33.6239988  87.4729786  32.9648471
  41.0148259  90.5343276  31.8990244  41.4808711  91.3671267  31.8250547
  41.4655759  90.0688257  32.6035503  30.9570094  98.5369147  40.6128489
  31.6579554  99.1705630  40.7657884  30.4865209  98.8783879  39.8524129
  39.0824490  96.8787097  28.8976396  39.3584334  96.7643691  29.8070270
  38.2128989  96.4804582  28.8588569  38.9864921  82.9023863  35.9381146
  38.0728001  83.1328089  36.1063353  39.4158023  82.9862307  36.7895178
  38.7571380  91.0913755  38.4381040  38.1042830  91.3389662  37.7833492
  39.1351760  90.2777893  38.1043517  35.7178554 101.1273448  32.5409210
  35.9000948 100.3095104  33.0036962  36.5411540 101.3441140  32.1034100
  36.0520719 100.0541633  29.8024259  36.5808486  99.5434087  29.1894421
  36.3148939  99.7384163  30.6669792  34.8058953  91.8333566  44.9247077
  34.1299590  91.7327695  45.5949452  35.6286587  91.6772779  45.3883074
  26.5537812  98.0705502  37.5459592  27.1391249  97.3249190  37.6787496
  26.3562651  98.3809459  38.4296256  29.4076467 101.1056750  32.5622034
  28.7386843 101.5902877  32.0786074  29.2689337 101.3525970  33.4765413
  21.1455467  90.6411102  36.2664035  21.1839566  90.1074693  37.0601153
  20.6395760  90.1146308  35.6475012  33.5481736 103.1400493  39.1604693
  34.1000044 103.3032115  39.9253778  33.8887929 103.7304931  38.4884718
  28.5246229  85.4875643  39.7626577  28.5887556  86.3490474  39.3503975
  28.4613349  84.8749645  39.0298936  27.9998502  87.5598775  43.4099612
  28.6270540  87.1775853  44.0237136  27.1426420  87.3412977  43.7755304
  38.3992610  97.9661751  45.0153347  38.9432514  98.5791709  44.5208302
  37.8179455  98.5241329  45.5320360  24.7764044  89.3675205  29.3417967
  25.0717485  88.4585883  29.2885020  23.8752080  89.3462944  29.0198969
  36.6850123 101.0882469  36.1468375  36.5601263 100.2872208  35.6379320
  37.3429214 101.5828662  35.6582345  28.3058291  87.4431201  35.3245515
  27.5844877  88.0567169  35.1852988  29.0951547  87.9788966  35.2462161
  38.7485032  98.8891489  37.7747925  37.8015367  98.7696840  37.7026252
  39.0967805  98.0013987  37.8574186  31.1084605  84.7785628  41.5986167
  31.6319007  85.0247924  42.3612476  30.8896938  85.6105662  41.1789304
  26.5051886  87.0489302  29.4657292  26.1764592  86.1686681  29.2832398
  26.8591257  86.9936971  30.3533681  35.7531465  98.6844205  33.9752277
  35.6056427  97.7560912  34.1559847  36.5784958  98.7064296  33.4909353
  29.6193709  87.3362272  29.8332769  29.9589782  87.8648193  29.1111378
  30.0665830  87.6742678  30.6091336  39.3565587  99.5072764  35.0617150
  40.2812134  99.3015625  34.9241601  39.1880890  99.2589165  35.9706492
  32.3137150  85.7199323  39.2835837  31.9733970  84.9207136  39.6856517
  31.6076156  86.0201034  38.7112671  32.9653622  82.8048635  37.7363160
  33.7879691  82.3309113  37.6142051  33.2091685  83.5839119  38.2361847
  31.6061856  85.8336894  28.0326062  32.3270219  86.2118146  27.5289779
  30.9827160  86.5525770  28.1361040  35.7492979  86.5382043  28.9684395
  35.9656594  87.4206680  28.6673223  35.2687046  86.1468256  28.2390037
  30.4892201  89.4967756  35.5455139  30.3436781  89.8108059  36.4379421
  30.0117404  90.1152656  34.9926038  32.3488583  86.4870304  35.5936029
  32.3350152  85.5911397  35.2568327  33.0661012  86.4940967  36.2274315
  34.2014714  86.9207644  37.6389156  33.9432492  87.8424715  37.6373487
  33.6699755  86.5238078  38.3289620  39.1460903 100.0258431  30.4179241
  39.3197780  99.4604854  29.6653094  39.6389794 100.8259326  30.2358731
  24.9637863  92.0373100  38.4842800  24.4191331  92.8132908  38.6163075
  25.8417213  92.3843905  38.3261922  31.7525479  85.3684684  30.8623599
  31.8741391  84.4401330  31.0614486  31.4627522  85.3823370  29.9501914
  34.6216670  83.0539594  33.9990319  34.6438367  83.1178928  33.0442298
  35.0384729  82.2144103  34.1930825  45.0000294  92.7894854  32.0369541
  45.4431440  92.0402179  31.6388664  44.1226804  92.7804990  31.6543273
  40.1336075  99.3425195  27.5176140  40.8286980  99.9631888  27.7363454
  40.4759226  98.4920547  27.7928518  25.7503885  91.1642996  41.3772957
  25.0085621  91.3125632  41.9637588  25.4296629  91.4251262  40.5139707
  42.0327499  96.7924901  29.0463471  42.5578823  97.1312174  28.3212791
  41.9449851  95.8571916  28.8626605  33.6947547 100.7058975  41.1753347
  34.0034674 100.4608121  42.0476047  34.4923029 100.9105613  40.6872217
  33.7168159 102.8596884  33.4058724  33.2773150 102.3673263  34.0991580
  34.4676276 102.3169852  33.1650799  26.1960498  99.0508425  33.4083352
  27.0218518  98.7512197  33.0281995  25.8454550  98.2816048  33.8573140
  31.1642031  98.4034893  35.4781025  30.5422041  97.7405598  35.1783253
  31.8346898  98.4296025  34.7954673  24.3969103  96.9694752  34.3672285
  23.5601012  96.5416926  34.1856287  24.3692749  97.1627195  35.3043077
  31.2366559  86.8816681  45.0713531  31.2854714  87.7578804  44.6891301
  31.7789073  86.3394074  44.4985175  41.7221405  97.4257805  44.3514668
  40.9316948  97.4081943  43.8119168  41.4854759  97.9646098  45.1063705
  41.8419280  94.2750271  41.6647397  41.8917285  94.1100278  42.6062920
  41.7333203  93.4077530  41.2745278  30.7255538  96.9538817  28.9539486
  30.8743659  97.6374281  28.3006159  31.5321982  96.9343907  29.4688942
  39.1323042  90.2581199  42.9806704  40.0332905  90.1187664  42.6890702
  39.2071017  90.4235654  43.9204881  33.4665847  87.6348054  41.8259890
  32.5969157  87.9281620  41.5542479  33.7025328  88.2188499  42.5467154
  43.3437476  96.6947213  41.9089419  43.0522285  97.0577193  42.7452880
  42.7309608  95.9814221  41.7302751  44.5433159  94.2600092  34.4291989
  45.3780050  94.6989896  34.5929549  44.6792288  93.7838746  33.6100235
  41.5924665  91.8179827  40.3769477  42.0678786  92.0107473  39.5688328
  40.6690230  91.8739013  40.1312860  28.4808171  92.9803994  29.9600555
  28.2354213  92.0766324  30.1580765  28.6504086  92.9821145  29.0180033
  36.1704881  83.8527671  39.3425310  36.6886825  84.5888698  39.0171799
  35.8160014  84.1591664  40.1772070  27.7503819  88.7132352  27.4586716
  27.0573064  88.7876707  26.8026752  27.5055571  87.9492696  27.9808233
  36.4217475  80.2727953  34.8626207  36.7019229  79.6051142  35.4886634
  37.2068082  80.4657049  34.3500871  34.2250944  99.4486947  26.4251233
  33.6524911 100.0677134  25.9721705  34.7983738  99.9986309  26.9591155
  40.2926334  88.6945587  38.6097782  41.2443757  88.7943685  38.6310006
  40.1229784  87.9023856  39.1195867  38.3140713  85.7801170  38.7957183
  37.7190645  86.0606183  38.1003672  38.0290410  86.2695071  39.5673924
  37.4448204  99.7324097  27.5559816  38.3778877  99.6669659  27.7592691
  37.3571416 100.5680364  27.0974348  40.0736220  99.0489968  24.5163763
  39.9949852  98.7149831  25.4099521  40.8945887  99.5411736  24.5155236
  42.7714411  91.9151707  37.7240082  42.7390732  90.9767708  37.9099766
  43.3815035  91.9935744  36.9905907  34.6097742  90.7847760  23.7667286
  35.5556847  90.6553968  23.8355704  34.2311987  90.0462422  24.2436714
  42.9208900  88.7062750  37.7698365  42.4047949  87.9221207  37.5828294
  43.8048848  88.3781467  37.9344884  40.5819627  82.4503766  33.7294178
  40.3844448  82.1418854  34.6137510  41.1919332  83.1765405  33.8592108
  48.5890961  92.9767714  36.8646119  49.3194350  92.7153002  37.4253822
  47.9797907  92.2396436  36.9048187  46.6706258  91.1175576  37.4620570
  45.9439422  90.9831541  36.8537061  46.2553545  91.4252405  38.2677288
  34.4936435  94.8365506  45.2267943  35.4139444  95.0144105  45.4207989
  34.4586018  93.8921551  45.0747642  32.7940659  88.7097736  23.7022171
  31.8872115  88.4130849  23.7784885  33.0716640  88.4127554  22.8356457
  23.7118600  90.0304100  34.1521217  23.3921384  89.1769408  33.8595591
  23.1652028  90.2452678  34.9079185  27.4898507  92.7466541  37.8690724
  27.7084517  93.6783649  37.8878758  27.9024281  92.3874515  38.6545528
  34.4102725  83.2534626  29.8566412  33.6003454  82.9081711  30.2321658
  35.0987142  82.9442170  30.4454024  36.3393274  82.3312673  31.4790709
  36.8924312  82.7508126  32.1380732  36.5763360  81.4048421  31.5213665
  32.3626373  88.3199746  47.2593473  32.2623100  89.2694103  47.1905564
  32.1447915  87.9917985  46.3869543  31.5639444  85.5684672  23.8434150
  32.4258608  85.8939570  24.1029968  31.7489788  84.7816167  23.3307216
  23.5806860  93.6507011  36.1214339  22.8870331  93.2360964  35.6084293
  24.3279851  93.6927548  35.5247758  39.7172081  84.4413198  30.9869373
  39.1370750  85.0998002  30.6047426  39.4508013  83.6190543  30.5756791
  38.1675647  83.8418256  33.1890694  38.6675425  83.9534790  32.3805012
  38.8111255  83.5379309  33.8291502  32.2257643  91.7496885  46.0758535
  31.7424724  92.5497245  46.2822424  32.3118582  91.7604830  45.1225979
  25.4943602  93.5825265  33.9980354  25.4714291  93.6812952  33.0462237
  25.8044239  94.4290416  34.3197520  28.1530980  95.6401420  38.1126968
  29.1074234  95.6085362  38.0456900  27.9543504  95.1792044  38.9277194
  28.7430362  94.2102536  40.6797766  29.5623251  94.7046615  40.7032603
  29.0167170  93.2934504  40.6515334  38.4996959  86.6013288  30.0425722
  37.6122814  86.8862939  29.8245916  38.9150948  86.4407052  29.1952998
  41.8511495  86.6259809  33.7580061  42.6271885  87.1156262  34.0304678
  41.1259629  87.0517864  34.2151930  44.2884053  87.3387429  34.8154001
  44.8828544  87.0983165  34.1047310  44.3610637  86.6194559  35.4427538
  26.5081209 101.1821040  35.1297166  26.3735677 100.4221440  34.5635164
  26.0913271 101.9061939  34.6625955  37.6440172  96.3657963  24.1373742
  38.3476022  96.5707966  24.7531397  36.9202821  96.9334725  24.4022825
  38.4737982  92.1167824  30.2576012  38.4173184  92.5736376  29.4183644
  39.0266325  91.3558509  30.0798854  42.2842788  87.9057556  31.0826131
  42.0279723  87.5054192  31.9134339  41.6595656  88.6201350  30.9576270
  46.5955126  90.6453629  33.5897423  46.0354684  90.7146819  34.3628985
  45.9898629  90.4694614  32.8696919  29.6650335 102.0790357  35.3415609
  29.5482719 103.0235789  35.2394299  28.8442781 101.7763918  35.7301408
  39.5526869  96.8040492  26.1872202  40.3872473  96.3721691  26.0049676
  39.3911212  96.6322506  27.1149096  39.2072762  93.3072606  27.5528541
  39.1521565  93.1416877  26.6116985  38.5818817  94.0148638  27.7090731
  23.9965277  88.5440670  41.3789963  24.6424140  88.0339624  41.8677188
  23.7882428  89.2809352  41.9533388  36.5218669  95.6121517  46.8782104
  37.3909828  95.7862170  46.5168739  36.0425420  96.4315934  46.7557833
  32.5168887  82.8080715  27.1313859  32.5047557  83.7522554  27.2882130
  33.4092309  82.6250860  26.8373320  30.6904849 102.7318618  38.5571537
  31.5932096 102.7642229  38.8738032  30.4642219 101.8019069  38.5717873
  32.4458451 101.4849605  35.2181616  31.4954082 101.4851467  35.1045988
  32.7490937 100.7382340  34.7017651  36.3321007  79.4023491  31.3859796
  35.5653402  78.8481978  31.5316478  36.7431712  79.4745360  32.2473948
  28.3362768  85.6908287  45.4764977  29.1994229  85.3345092  45.6868302
  27.7628178  85.3522182  46.1640382  48.1811145 107.3210143  36.2827378
  48.8189555 107.2016891  35.5790718  48.0631987 108.2690987  36.3415330
  44.9900851 107.2737571  36.2188903  44.6519362 107.1578636  35.3309438
  45.8590619 106.8728737  36.1989909  40.8487667 109.1273048  32.2085794
  40.2852532 109.0362985  31.4402082  40.7340062 108.3072952  32.6888286
  45.4720634 108.4272423  42.1775109  45.4609275 108.0325221  41.3055612
  45.6341273 107.6938496  42.7708880  38.3952098 110.6224239  35.0470014
  39.1873390 110.2815064  34.6316314  38.6348749 110.7319215  35.9672168
  46.4287225 112.7944016  27.5200259  45.7775205 113.3798096  27.1334273
  47.2231588 113.3250210  27.5795296  40.3542852 109.8833153  27.9187393
  41.1273728 109.3362140  27.7800269  40.7068251 110.7477402  28.1301855
  42.1927895 111.2109535  41.1254293  41.9017761 112.1155166  41.0100959
  42.8284879 111.2526063  41.8398362  43.1184102 108.5886384  37.7155652
  43.7147674 108.3642406  37.0012615  43.1759073 107.8471129  38.3181100
  42.6909130 106.0425819  25.5505843  42.9434651 105.5207340  24.7889306
  41.7533689 105.8791964  25.6532527  47.7352413 105.0461597  33.3580586
  48.5215502 104.6281020  33.0071003  47.9991117 105.9507689  33.5262235
  47.9062490 110.4834448  28.0569243  47.2708323 110.5569074  28.7690148
  47.5759897 111.0728046  27.3788322  53.1360840 104.9836830  34.2613565
  53.8686012 104.4136047  34.4951394  52.3800196 104.5958431  34.7020070
  42.4105419 107.9453925  27.7530218  42.2941677 107.2698828  28.4211302
  42.5207679 107.4586299  26.9362371  44.7536960 107.4064072  31.4576907
  44.3895167 106.8794693  32.1689829  45.6104076 107.0162541  31.2843393
  50.6586261  98.6958405  38.7208173  50.3269585  99.5653815  38.4969388
  50.0631874  98.3794689  39.4002204  44.3942447 102.4353972  26.4538256
  44.5616849 103.3034208  26.8208727  44.2039616 102.5981253  25.5299545
  47.1517780 110.8970950  38.1204086  46.8518503 111.7995989  38.0119893
  46.8068840 110.6303134  38.9725239  40.6030262 107.3484747  34.1540791
  39.6780758 107.2160961  34.3618482  40.8514675 108.1278967  34.6510733
  50.5514924 103.4153491  35.8001524  49.6431801 103.3468899  35.5060284
  50.5002520 103.8925436  36.6283349  44.3731668 104.8911629  27.4384923
  44.2531293 105.3368680  28.2770403  43.6784256 105.2396947  26.8798461
  37.9639073 106.9918021  34.9884580  38.0931454 107.2452500  35.9023991
  37.2836524 107.5845729  34.6689235  42.1338560 117.6615271  31.0875054
  42.0562590 118.6123096  31.1663534  41.5300203 117.3161143  31.7449980
  44.6255790 104.8343136  43.7436421  43.8489124 105.3937056  43.7339285
  45.2646353 105.3199919  44.2651291  52.4176570 101.6169929  37.5779397
  51.7750951 101.9102462  36.9319192  51.9131499 101.5022849  38.3832594
  50.0716734 105.3633102  28.2665257  50.9834590 105.5960489  28.0912954
  49.5626381 105.9470146  27.7040335  42.8802162 107.6428590  43.3054388
  43.6216846 108.1813634  43.0289211  42.1739147 108.2694878  43.4625940
  48.3557502 109.7857730  41.9026549  48.7640858 109.3440141  41.1581182
  47.6334763 109.2110358  42.1560742  44.7088572 104.7230337  39.2760106
  45.5549767 105.1469750  39.4194755  44.6487209 104.0663961  39.9698669
  48.6786316 110.3458921  35.6578838  48.0495179 110.5104635  34.9554906
  48.2911978 110.7600530  36.4289802  52.5575548 111.2813359  33.0123202
  51.8726586 111.6612260  32.4620235  52.6419397 111.8908685  33.7455150
  47.8588017 102.3834705  40.9341280  47.6148949 103.1376766  40.3975556
  48.1347947 102.7620053  41.7688527  49.8126480 108.9273318  39.6118545
  50.0243375 109.5705077  38.9352927  49.7656228 108.0935634  39.1440476
  47.4152709 101.5391138  36.5155118  46.5537188 101.8372392  36.8071855
  47.4415143 101.7561537  35.5836150  44.2314278 110.0833329  32.9228923
  44.6952624 110.3621032  32.1333546  43.9671076 109.1816773  32.7402014
  41.1238359 109.6304810  35.8608687  41.6939716 110.0592079  35.2226171
  41.7146471 109.3487395  36.5592872  43.1683164 106.2056481  29.7318488
  43.8707208 106.6577525  30.1992415  42.8363793 105.5640300  30.3598382
  41.6163526 104.7968238  44.1069698  40.9862186 105.4784519  44.3405095
  41.5099614 104.6851319  43.1622836  36.9108498 104.4640034  35.0335622
  36.1207552 104.7197562  34.5575733  37.4019745 105.2788372  35.1387663
  50.9272308 111.8045273  37.7840903  51.7489751 111.4025460  37.5023584
  50.9234711 111.7013507  38.7357019  38.8623244 104.8284613  31.9919099
  38.0654407 104.9403307  32.5102594  38.6348836 105.1671265  31.1259989
  44.6928911 111.3529316  39.9401613  44.7573344 111.8149724  40.7759785
  43.9839835 110.7226681  40.0683923  35.1946201 104.7170524  37.4650613
  35.4454240 105.6017534  37.7308189  35.7305750 104.5375126  36.6925705
  59.0178301 108.1484021  34.1325874  58.2642009 107.5791420  33.9769879
  59.1525842 108.1146686  35.0796509  44.4076929 113.0197424  29.8080594
  44.2722604 113.8648960  30.2365441  44.9486741 113.2216701  29.0446527
  40.8944268  99.0989004  46.4694949  40.5011214  98.5455202  47.1442593
  41.7110409  99.4099582  46.8601466  37.8606326 110.5372862  30.3808519
  38.3730847 111.3316112  30.5314083  38.5129039 109.8399152  30.3142120
  39.6701211 113.6538618  32.4631272  39.8467839 114.5756583  32.2752256
  40.4658044 113.3397037  32.8925652  43.8112229 100.5146883  44.0615205
  44.5521943 101.1154036  43.9819668  44.0430152  99.7724521  43.5033248
  38.9553567 105.7003250  42.3393435  38.8407083 104.7988507  42.6400534
  38.0998085 105.9466947  41.9878252  46.0345405 113.6420990  43.9380936
  45.5909259 112.8557369  43.6201840  46.6962619 113.8300141  43.2724826
  40.7932526 115.1716792  38.4641614  41.3439951 115.0433855  37.6918608
  39.9544002 115.4711681  38.1136507  48.1326643 113.9223790  41.9662337
  48.1145119 114.7432671  41.4742606  49.0546563 113.7977865  42.1912478
  44.5899697 111.4367920  42.8085845  45.1228034 110.6756208  42.5785153
  44.0613778 111.1441572  43.5510000  47.7569392  96.5427986  38.3379487
  47.4133662  97.4329627  38.2618598  48.1248355  96.3529643  37.4749072
  35.8255243 108.8661516  31.1568089  36.6630465 109.2758525  30.9401797
  36.0033511 107.9260958  31.1268283  47.7219675 106.5336597  26.8451922
  47.2066299 107.3041201  27.0840310  47.4496984 105.8601733  27.4684984
  45.3066786 101.3786298  31.9037161  44.4508382 100.9893148  31.7242799
  45.7193738 101.4578258  31.0436946  46.8365933  98.9132641  36.3028720
  46.3330728  98.8762776  35.4896526  47.1296540  99.8225384  36.3625377
  43.0808819  98.9971371  35.3094902  43.9461815  98.8014179  34.9500792
  43.1486328  98.7681722  36.2364259  52.6953949 109.2868951  28.7805096
  51.9183392 108.9480111  28.3360258  53.3745430 109.2921575  28.1060061
  47.5105978 104.4063689  28.6711703  47.2056114 104.7209838  29.5221847
  48.4636420 104.4845109  28.7139036  45.9552410 110.5653912  30.3204657
  45.4273772 109.8306672  30.0077895  45.4539913 111.3428589  30.0744626
  50.9345256 108.7602933  35.4371704  50.2768931 109.4502194  35.5251832
  51.7385655 109.1499365  35.7805690  40.6871138 101.2273578  32.6811269
  41.2614890 101.0048760  31.9484462  41.2742120 101.2962273  33.4339870
  49.7450715 107.1147305  33.4875645  50.2582597 107.7477297  33.9897355
  50.3951939 106.5148501  33.1219005  41.0140725 103.2578040  26.7007154
  40.1778037 103.5952726  27.0216429  40.8745494 103.1227019  25.7634291
  42.9893805  98.1014827  31.4086338  42.3358218  97.7863845  30.7842953
  42.9474280  97.4790568  32.1346161  44.1005010 108.3834122  23.3239630
  43.1932072 108.1523376  23.5230779  44.5976042 107.5871742  23.5113612
  47.0073089 117.0931630  26.2436317  46.3334788 117.3963326  26.8521274
  47.3938911 117.8960710  25.8941774  46.2231546 104.5896761  35.7333986
  45.3054107 104.8111708  35.5755674  46.6391689 104.6643071  34.8745693
  47.0066594 105.9888177  30.8636666  47.7538412 106.5009574  30.5543788
  47.2758183 105.6672229  31.7241060  45.2793244 108.4846717  27.8463620
  44.3704463 108.2005750  27.9436090  45.3088328 108.9045796  26.9866927
  50.5112511 112.0953307  31.6154788  50.0574838 111.2544217  31.6719979
  49.8806478 112.7314705  31.9529568  49.4545431 103.0245293  32.8455455
  48.7168187 102.5122679  33.1765698  49.7072204 102.5845674  32.0338732
  48.9545450 113.9329804  32.5504606  49.2468425 114.4934861  31.8316972
  49.4644071 114.2258365  33.3057765  49.5557058  95.8021545  33.4397225
  49.8615935  94.9418908  33.1523140  50.2809663  96.3939165  33.2396219
  35.8481414 106.2052231  31.8278823  35.6505814 105.6121592  31.1029889
  35.2928078 105.9004442  32.5454761  43.8278138 106.0975338  33.9473416
  43.8826748 105.1449174  33.8715892  43.0169340 106.2534777  34.4314714
  44.9769332 110.0255461  25.1851699  44.5388761 109.3091320  24.7257336
  45.7179772 110.2531576  24.6236790  41.7670498 104.7152398  31.7063795
  40.9538363 105.0146568  32.1128987  42.2629492 104.3208086  32.4238277
  43.9179076 114.7110155  33.6398059  43.8755254 114.9371001  32.7106591
  44.8341774 114.4773529  33.7883861  47.3644709 105.1794222  40.5378689
  47.7194097 105.4065695  41.3973154  48.0116841 105.5112599  39.9155944
  53.0942446 108.3012658  31.2428018  52.9560345 108.4914254  30.3149207
  52.7378665 109.0632041  31.6996069  41.2584572 102.2870753  37.3225030
  41.8983952 102.1459512  36.6247993  40.4262103 102.0005267  36.9463632
  53.1211826 110.3689185  36.2539289  53.5548333 110.2764474  37.1022343
  53.8343407 110.3446686  35.6159305  42.0344876 111.5873184  33.4360022
  42.8285475 111.0923504  33.2342597  41.3236569 111.0591047  33.0727728
  46.8539721 113.9691279  37.7872390  46.9076743 114.5382215  38.5550106
  45.9854502 114.1393164  37.4226427  38.3427640 105.7316265  29.5119775
  37.4125228 105.6700721  29.7289737  38.4385112 105.2092218  28.7156416
  38.2613189 102.2571078  32.0998016  38.5220006 103.1716411  31.9907177
  39.0830361 101.7895521  32.2494629  39.7338114 103.6708835  39.2696841
  40.4061168 103.4626197  38.6209490  38.9067901 103.4730921  38.8302073
  53.9827375 110.4112886  38.7872175  54.1763266 111.3158696  39.0331449
  53.8827994 109.9520305  39.6210760  45.6363686 100.2970776  41.2862502
  44.9891601 100.9960726  41.1926978  46.4064702 100.7306920  41.6538750
  49.0442484 110.5619628  44.3613055  48.8927991 110.3330180  43.4443139
  49.0347164 111.5190230  44.3744400  45.8127821 108.1351541  39.3459322
  46.7419881 108.2862701  39.1728289  45.3918851 108.2235562  38.4907968
  44.6116152 112.1602206  37.1157859  44.4727238 111.7920990  37.9883797
  43.8230749 112.6749845  36.9441817  45.2064304 117.2611302  28.4583396
  45.3816060 116.7899345  29.2729018  44.5197092 117.8877068  28.6864656
  46.1621367 111.5383808  34.5046697  45.8271200 111.4984578  35.4004347
  45.6625313 110.8728524  34.0317107  40.1365611 106.9451438  40.0299278
  39.9985409 106.2131677  40.6310817  41.0470535 106.8560338  39.7483466
  49.0980559 108.8839843  24.7783757  48.4809730 108.1586671  24.6816809
  48.6297048 109.6449203  24.4350831  42.7647912 106.6571398  39.5182958
  43.4747531 106.0164590  39.4769576  42.7217220 106.9084293  40.4409139
  50.7534691 113.5938751  42.4389537  50.6947237 112.9097971  41.7720120
  51.1554209 114.3357741  41.9870163  41.4776846 103.6436616  41.3378597
  40.9414203 103.1927354  41.9900194  40.8893555 103.7782524  40.5949062
  40.8879105 103.1025267  23.9005061  40.0108571 102.9814068  23.5367308
  41.3636858 102.3111345  23.6483950  50.7552098 111.5578335  40.6703517
  49.8678877 111.2204257  40.7929916  51.3250649 110.8261366  40.9072282
  32.4081245 107.8902427  33.9946568  33.0952285 107.5764157  33.4067583
  32.2529374 108.7943791  33.7213819  37.2115967 102.7792623  38.4231592
  37.1274156 102.1718293  37.6882002  36.3898674 103.2701642  38.4241088
  44.2853251 116.2179787  37.6364760  44.2123423 117.0234759  38.1484064
  43.8430645 116.4171753  36.8112781  44.0743031 115.4551557  31.1467581
  43.2910553 115.9973238  31.2405806  44.7735776 115.9725537  31.5461823
  47.3839681 101.2646187  33.7901787  47.8808381 100.5116149  33.4702857
  46.6126663 101.3010503  33.2244996  55.2369439 106.9686552  35.4320078
  55.2259315 107.8511268  35.0614011  54.3686818 106.6158103  35.2374615
  46.7451935 116.1166621  39.7922919  47.4579907 116.7514086  39.7198820
  46.2541964 116.2130487  38.9762920  48.4669462 110.0217874  31.3640210
  47.5325741 110.1419336  31.1944915  48.6446130 109.1190341  31.1000220
  43.9674650 103.4063570  33.5173471  43.5972437 102.8534610  34.2054377
  44.4633742 102.8021703  32.9648471  51.8542013 105.8635193  31.8990244
  52.3202465 106.6963185  31.8250547  52.3049514 105.3980175  32.6035503
  41.7963849 113.8661065  40.6128489  42.4973308 114.4997548  40.7657884
  41.3258963 114.2075796  39.8524129  49.9218244 112.2079015  28.8976396
  50.1978088 112.0935609  29.8070270  49.0522743 111.8096499  28.8588569
  49.8258676  98.2315780  35.9381146  48.9121756  98.4620007  36.1063353
  50.2551777  98.3154224  36.7895178  49.5965134 106.4205672  38.4381040
  48.9436585 106.6681580  37.7833492  49.9745514 105.6069810  38.1043517
  46.5572308 116.4565365  32.5409210  46.7394703 115.6387021  33.0036962
  47.3805294 116.6733058  32.1034100  46.8914474 115.3833551  29.8024259
  47.4202240 114.8726005  29.1894421  47.1542693 115.0676081  30.6669792
  45.6452707 107.1625483  44.9247077  44.9693345 107.0619613  45.5949452
  46.4680341 107.0064697  45.3883074  37.3931567 113.3997420  37.5459592
  37.9785003 112.6541108  37.6787496  37.1956405 113.7101377  38.4296256
  40.2470222 116.4348667  32.5622034  39.5780597 116.9194795  32.0786074
  40.1083091 116.6817888  33.4765413  31.9849221 105.9703020  36.2664035
  32.0233321 105.4366611  37.0601153  31.4789514 105.4438226  35.6475012
  44.3875490 118.4692411  39.1604693  44.9393798 118.6324032  39.9253778
  44.7281684 119.0596849  38.4884718  39.3639984 100.8167561  39.7626577
  39.4281310 101.6782391  39.3503975  39.3007104 100.2041562  39.0298936
  38.8392256 102.8890693  43.4099612  39.4664295 102.5067770  44.0237136
  37.9820175 102.6704895  43.7755304  49.2386365 113.2953668  45.0153347
  49.7826269 113.9083627  44.5208302  48.6573210 113.8533247  45.5320360
  35.6157799 104.6967122  29.3417967  35.9111240 103.7877801  29.2885020
  34.7145835 104.6754862  29.0198969  47.5243878 116.4174386  36.1468375
  47.3995017 115.6164126  35.6379320  48.1822969 116.9120580  35.6582345
  39.1452046 102.7723119  35.3245515  38.4238632 103.3859086  35.1852988
  39.9345302 103.3080884  35.2462161  49.5878786 114.2183406  37.7747925
  48.6409122 114.0988758  37.7026252  49.9361559 113.3305904  37.8574186
  41.9478359 100.1077545  41.5986167  42.4712761 100.3539842  42.3612476
  41.7290693 100.9397580  41.1789304  37.3445640 102.3781220  29.4657292
  37.0158347 101.4978599  29.2832398  37.6985011 102.3228889  30.3533681
  46.5925219 114.0136123  33.9752277  46.4450182 113.0852830  34.1559847
  47.4178713 114.0356213  33.4909353  40.4587464 102.6654190  29.8332769
  40.7983536 103.1940111  29.1111378  40.9059584 103.0034596  30.6091336
  50.1959341 114.8364681  35.0617150  51.1205889 114.6307543  34.9241601
  50.0274645 114.5881082  35.9706492  43.1530904 101.0491240  39.2835837
  42.8127725 100.2499053  39.6856517  42.4469911 101.3492951  38.7112671
  43.8047376  98.1340553  37.7363160  44.6273446  97.6601031  37.6142051
  44.0485440  98.9131037  38.2361847  42.4455611 101.1628811  28.0326062
  43.1663973 101.5410064  27.5289779  41.8220915 101.8817688  28.1361040
  46.5886734 101.8673960  28.9684395  46.8050348 102.7498598  28.6673223
  46.1080801 101.4760174  28.2390037  41.3285955 104.8259673  35.5455139
  41.1830536 105.1399977  36.4379421  40.8511159 105.4444574  34.9926038
  43.1882338 101.8162221  35.5936029  43.1743907 100.9203315  35.2568327
  43.9054766 101.8232885  36.2274315  45.0408469 102.2499562  37.6389156
  44.7826246 103.1716632  37.6373487  44.5093509 101.8529996  38.3289620
  49.9854657 115.3550349  30.4179241  50.1591535 114.7896771  29.6653094
  50.4783549 116.1551244  30.2358731  35.8031617 107.3665018  38.4842800
  35.2585085 108.1424826  38.6163075  36.6810967 107.7135822  38.3261922
  42.5919234 100.6976602  30.8623599  42.7135145  99.7693248  31.0614486
  42.3021276 100.7115288  29.9501914  45.4610424  98.3831512  33.9990319
  45.4832121  98.4470845  33.0442298  45.8778483  97.5436021  34.1930825
  55.8394049 108.1186772  32.0369541  56.2825195 107.3694097  31.6388664
  54.9620559 108.1096908  31.6543273  50.9729830 114.6717113  27.5176140
  51.6680735 115.2923806  27.7363454  51.3152980 113.8212464  27.7928518
  36.5897639 106.4934914  41.3772957  35.8479375 106.6417549  41.9637588
  36.2690383 106.7543180  40.5139707  52.8721253 112.1216819  29.0463471
  53.3972577 112.4604091  28.3212791  52.7843606 111.1863834  28.8626605
  44.5341302 116.0350892  41.1753347  44.8428428 115.7900039  42.0476047
  45.3316784 116.2397531  40.6872217  44.5561914 118.1888802  33.4058724
  44.1166904 117.6965181  34.0991580  45.3070031 117.6461770  33.1650799
  37.0354253 114.3800343  33.4083352  37.8612273 114.0804115  33.0281995
  36.6848305 113.6107965  33.8573140  42.0035786 113.7326811  35.4781025
  41.3815795 113.0697516  35.1783253  42.6740653 113.7587943  34.7954673
  35.2362858 112.2986669  34.3672285  34.3994766 111.8708844  34.1856287
  35.2086503 112.4919113  35.3043077  42.0760313 102.2108599  45.0713531
  42.1248469 103.0870722  44.6891301  42.6182828 101.6685992  44.4985175
  52.5615159 112.7549722  44.3514668  51.7710703 112.7373861  43.8119168
  52.3248514 113.2938016  45.1063705  52.6813034 109.6042189  41.6647397
  52.7311039 109.4392196  42.6062920  52.5726957 108.7369448  41.2745278
  41.5649293 112.2830734  28.9539486  41.7137413 112.9666199  28.3006159
  42.3715736 112.2635824  29.4688942  49.9716797 105.5873117  42.9806704
  50.8726659 105.4479582  42.6890702  50.0464771 105.7527572  43.9204881
  44.3059602 102.9639971  41.8259890  43.4362911 103.2573538  41.5542479
  44.5419082 103.5480416  42.5467154  54.1831231 112.0239130  41.9089419
  53.8916039 112.3869111  42.7452880  53.5703362 111.3106138  41.7302751
  55.3826913 109.5892010  34.4291989  56.2173805 110.0281814  34.5929549
  55.5186042 109.1130663  33.6100235  52.4318419 107.1471745  40.3769477
  52.9072541 107.3399391  39.5688328  51.5083985 107.2030931  40.1312860
  39.3201926 108.3095912  29.9600555  39.0747968 107.4058242  30.1580765
  39.4897840 108.3113062  29.0180033  47.0098636  99.1819588  39.3425310
  47.5280580  99.9180615  39.0171799  46.6553768  99.4883582  40.1772070
  38.5897573 104.0424270  27.4586716  37.8966818 104.1168625  26.8026752
  38.3449325 103.2784613  27.9808233  47.2611230  95.6019871  34.8626207
  47.5412984  94.9343060  35.4886634  48.0461837  95.7948967  34.3500871
  45.0644698 114.7778865  26.4251233  44.4918665 115.3969052  25.9721705
  45.6377492 115.3278227  26.9591155  51.1320088 104.0237505  38.6097782
  52.0837511 104.1235603  38.6310006  50.9623539 103.2315773  39.1195867
  49.1534468 101.1093088  38.7957183  48.5584400 101.3898101  38.1003672
  48.8684164 101.5986989  39.5673924  48.2841958 115.0616015  27.5559816
  49.2172631 114.9961577  27.7592691  48.1965171 115.8972282  27.0974348
  50.9129975 114.3781885  24.5163763  50.8343606 114.0441749  25.4099521
  51.7339642 114.8703653  24.5155236  53.6108166 107.2443625  37.7240082
  53.5784486 106.3059625  37.9099766  54.2208790 107.3227661  36.9905907
  45.4491497 106.1139678  23.7667286  46.3950602 105.9845886  23.8355704
  45.0705742 105.3754339  24.2436714  53.7602654 104.0354668  37.7698365
  53.2441703 103.2513125  37.5828294  54.6442603 103.7073385  37.9344884
  51.4213381  97.7795684  33.7294178  51.2238203  97.4710772  34.6137510
  52.0313087  98.5057323  33.8592108  59.4284716 108.3059631  36.8646119
  60.1588104 108.0444920  37.4253822  58.8191661 107.5688353  36.9048187
  57.5100013 106.4467494  37.4620570  56.7833177 106.3123459  36.8537061
  57.0947300 106.7544323  38.2677288  45.3330189 110.1657424  45.2267943
  46.2533199 110.3436023  45.4207989  45.2979772 109.2213469  45.0747642
  43.6334414 104.0389654  23.7022171  42.7265869 103.7422767  23.7784885
  43.9110395 103.7419472  22.8356457  34.5512354 105.3596017  34.1521217
  34.2315139 104.5061326  33.8595591  34.0045783 105.5744596  34.9079185
  38.3292262 108.0758458  37.8690724  38.5478272 109.0075566  37.8878758
  38.7418036 107.7166433  38.6545528  45.2496480  98.5826544  29.8566412
  44.4397208  98.2373629  30.2321658  45.9380897  98.2734087  30.4454024
  47.1787028  97.6604591  31.4790709  47.7318067  98.0800044  32.1380732
  47.4157114  96.7340339  31.5213665  43.2020127 103.6491664  47.2593473
  43.1016854 104.5986021  47.1905564  42.9841669 103.3209903  46.3869543
  42.4033199 100.8976589  23.8434150  43.2652363 101.2231488  24.1029968
  42.5883543 100.1108085  23.3307216  34.4200614 108.9798929  36.1214339
  33.7264086 108.5652882  35.6084293  35.1673605 109.0219465  35.5247758
  50.5565835  99.7705116  30.9869373  49.9764504 100.4289920  30.6047426
  50.2901768  98.9482460  30.5756791  49.0069401  99.1710173  33.1890694
  49.5069180  99.2826708  32.3805012  49.6505009  98.8671226  33.8291502
  43.0651397 107.0788803  46.0758535  42.5818479 107.8789163  46.2822424
  43.1512336 107.0896748  45.1225979  36.3337357 108.9117183  33.9980354
  36.3108045 109.0104870  33.0462237  36.6437993 109.7582333  34.3197520
  38.9924735 110.9693338  38.1126968  39.9467988 110.9377280  38.0456900
  38.7937258 110.5083961  38.9277194  39.5824117 109.5394454  40.6797766
  40.4017006 110.0338532  40.7032603  39.8560925 108.6226422  40.6515334
  49.3390713 101.9305206  30.0425722  48.4516568 102.2154857  29.8245916
  49.7544702 101.7698969  29.1952998  52.6905249 101.9551727  33.7580061
  53.4665639 102.4448179  34.0304678  51.9653383 102.3809781  34.2151930
  55.1277808 102.6679346  34.8154001  55.7222299 102.4275082  34.1047310
  55.2004392 101.9486477  35.4427538  37.3474964 116.5112957  35.1297166
  37.2129431 115.7513358  34.5635164  36.9307026 117.2353857  34.6625955
  48.4833927 111.6949881  24.1373742  49.1869777 111.8999883  24.7531397
  47.7596575 112.2626643  24.4022825  49.3131737 107.4459742  30.2576012
  49.2566938 107.9028293  29.4183644  49.8660079 106.6850427  30.0798854
  53.1236543 103.2349474  31.0826131  52.8673477 102.8346110  31.9134339
  52.4989411 103.9493268  30.9576270  57.4348881 105.9745547  33.5897423
  56.8748439 106.0438736  34.3628985  56.8292384 105.7986532  32.8696919
  40.5044089 117.4082274  35.3415609  40.3876474 118.3527707  35.2394299
  39.6836536 117.1055836  35.7301408  50.3920624 112.1332410  26.1872202
  51.2266228 111.7013608  26.0049676  50.2304967 111.9614424  27.1149096
  50.0466516 108.6364523  27.5528541  49.9915320 108.4708795  26.6116985
  49.4212571 109.3440556  27.7090731  34.8359031 103.8732588  41.3789963
  35.4817895 103.3631542  41.8677188  34.6276182 104.6101269  41.9533388
  47.3612423 110.9413435  46.8782104  48.2303583 111.1154087  46.5168739
  46.8819175 111.7607852  46.7557833  43.3562642  98.1372632  27.1313859
  43.3441311  99.0814472  27.2882130  44.2486063  97.9542778  26.8373320
  41.5298604 118.0610536  38.5571537  42.4325850 118.0934146  38.8738032
  41.3035974 117.1310987  38.5717873  43.2852206 116.8141523  35.2181616
  42.3347837 116.8143384  35.1045988  43.5884692 116.0674257  34.7017651
  47.1714761  94.7315409  31.3859796  46.4047157  94.1773896  31.5316478
  47.5825466  94.8037278  32.2473948  39.1756522 101.0200205  45.4764977
  40.0387984 100.6637010  45.6868302  38.6021933 100.6814099  46.1640382
  59.0204899 122.6502061  36.2827378  59.6583309 122.5308808  35.5790718
  58.9025742 123.5982905  36.3415330  55.8294605 122.6029489  36.2188903
  55.4913117 122.4870554  35.3309438  56.6984374 122.2020654  36.1989909
  56.3114388 123.7564341  42.1775109  56.3003029 123.3617139  41.3055612
  56.4735028 123.0230413  42.7708880  53.5302885 121.3717737  25.5505843
  53.7828405 120.8499258  24.7889306  52.5927444 121.2083882  25.6532527
  58.5746168 120.3753515  33.3580586  59.3609257 119.9572938  33.0071003
  58.8384872 121.2799607  33.5262235  63.9754595 120.3128748  34.2613565
  64.7079767 119.7427965  34.4951394  63.2193950 119.9250349  34.7020070
  55.5930714 122.7355990  31.4576907  55.2288922 122.2086611  32.1689829
  56.4497830 122.3454459  31.2843393  61.4980015 114.0250322  38.7208173
  61.1663340 114.8945733  38.4969388  60.9025628 113.7086606  39.4002204
  55.2336201 117.7645889  26.4538256  55.4010604 118.6326126  26.8208727
  55.0433370 117.9273171  25.5299545  61.3908678 118.7445408  35.8001524
  60.4825556 118.6760817  35.5060284  61.3396274 119.2217353  36.6283349
  55.2125422 120.2203547  27.4384923  55.0925047 120.6660598  28.2770403
  54.5178011 120.5688864  26.8798461  55.4649544 120.1635054  43.7436421
  54.6882878 120.7228974  43.7339285  56.1040107 120.6491837  44.2651291
  63.2570325 116.9461847  37.5779397  62.6144705 117.2394380  36.9319192
  62.7525253 116.8314767  38.3832594  60.9110488 120.6925020  28.2665257
  61.8228345 120.9252407  28.0912954  60.4020135 121.2762064  27.7040335
  59.1951256 125.1149648  41.9026549  59.6034612 124.6732058  41.1581182
  58.4728518 124.5402275  42.1560742  55.5482326 120.0522255  39.2760106
  56.3943521 120.4761668  39.4194755  55.4880964 119.3955879  39.9698669
  58.6981771 117.7126623  40.9341280  58.4542703 118.4668683  40.3975556
  58.9741702 118.0911971  41.7688527  60.6520234 124.2565235  39.6118545
  60.8637129 124.8996995  38.9352927  60.6049982 123.4227552  39.1440476
  58.2546463 116.8683056  36.5155118  57.3930942 117.1664309  36.8071855
  58.2808898 117.0853455  35.5836150  54.0076919 121.5348399  29.7318488
  54.7100962 121.9869443  30.1992415  53.6757547 120.8932218  30.3598382
  52.4557280 120.1260155  44.1069698  51.8255941 120.8076436  44.3405095
  52.3493368 120.0143237  43.1622836  47.7502253 119.7931952  35.0335622
  46.9601307 120.0489480  34.5575733  48.2413500 120.6080289  35.1387663
  49.7016998 120.1576531  31.9919099  48.9048161 120.2695225  32.5102594
  49.4742590 120.4963183  31.1259989  69.8572055 123.4775939  34.1325874
  69.1035764 122.9083337  33.9769879  69.9919596 123.4438604  35.0796509
  51.7338023 114.4280921  46.4694949  51.3404968 113.8747120  47.1442593
  52.5504163 114.7391500  46.8601466  54.6505984 115.8438800  44.0615205
  55.3915697 116.4445954  43.9819668  54.8823907 115.1016438  43.5033248
  49.7947322 121.0295168  42.3393435  49.6800837 120.1280425  42.6400534
  48.9391840 121.2758864  41.9878252  58.5963147 111.8719903  38.3379487
  58.2527416 112.7621545  38.2618598  58.9642109 111.6821561  37.4749072
  58.5613430 121.8628514  26.8451922  58.0460053 122.6333119  27.0840310
  58.2890738 121.1893651  27.4684984  56.1460541 116.7078215  31.9037161
  55.2902137 116.3185066  31.7242799  56.5587492 116.7870176  31.0436946
  57.6759687 114.2424559  36.3028720  57.1724483 114.2054694  35.4896526
  57.9690294 115.1517301  36.3625377  53.9202573 114.3263288  35.3094902
  54.7855570 114.1306097  34.9500792  53.9880082 114.0973640  36.2364259
  63.5347704 124.6160869  28.7805096  62.7577146 124.2772029  28.3360258
  64.2139185 124.6213492  28.1060061  58.3499733 119.7355607  28.6711703
  58.0449868 120.0501756  29.5221847  59.3030175 119.8137026  28.7139036
  61.7739011 124.0894850  35.4371704  61.1162685 124.7794112  35.5251832
  62.5779410 124.4791282  35.7805690  51.5264892 116.5565496  32.6811269
  52.1008644 116.3340678  31.9484462  52.1135875 116.6254191  33.4339870
  60.5844469 122.4439223  33.4875645  61.0976351 123.0769215  33.9897355
  61.2345693 121.8440419  33.1219005  51.8534479 118.5869957  26.7007154
  51.0171792 118.9244644  27.0216429  51.7139249 118.4518937  25.7634291
  53.8287560 113.4306745  31.4086338  53.1751972 113.1155762  30.7842953
  53.7868034 112.8082486  32.1346161  54.9398765 123.7126040  23.3239630
  54.0325826 123.4815294  23.5230779  55.4369797 122.9163659  23.5113612
  57.0625300 119.9188679  35.7333986  56.1447862 120.1403626  35.5755674
  57.4785444 119.9934989  34.8745693  57.8460348 121.3180094  30.8636666
  58.5932167 121.8301492  30.5543788  58.1151938 120.9964147  31.7241060
  56.1186998 123.8138635  27.8463620  55.2098217 123.5297668  27.9436090
  56.1482082 124.2337714  26.9866927  60.2939185 118.3537211  32.8455455
  59.5561942 117.8414597  33.1765698  60.5465959 117.9137592  32.0338732
  60.3950812 111.1313463  33.4397225  60.7009689 110.2710826  33.1523140
  61.1203417 111.7231083  33.2396219  54.6671892 121.4267256  33.9473416
  54.7220502 120.4741092  33.8715892  53.8563094 121.5826695  34.4314714
  52.6064252 120.0444315  31.7063795  51.7932118 120.3438486  32.1128987
  53.1023246 119.6500004  32.4238277  58.2038464 120.5086140  40.5378689
  58.5587852 120.7357613  41.3973154  58.8510595 120.8404517  39.9155944
  63.9336201 123.6304576  31.2428018  63.7954099 123.8206172  30.3149207
  63.5772420 124.3923959  31.6996069  52.0978327 117.6162671  37.3225030
  52.7377706 117.4751430  36.6247993  51.2655857 117.3297184  36.9463632
  63.9605580 125.6981103  36.2539289  64.3942087 125.6056392  37.1022343
  64.6737161 125.6738603  35.6159305  49.1821394 121.0608183  29.5119775
  48.2518982 120.9992639  29.7289737  49.2778866 120.5384136  28.7156416
  49.1006943 117.5862996  32.0998016  49.3613761 118.5008329  31.9907177
  49.9224116 117.1187438  32.2494629  50.5731869 119.0000753  39.2696841
  51.2454922 118.7918115  38.6209490  49.7461655 118.8022839  38.8302073
  64.8221130 125.7404803  38.7872175  65.0157020 126.6450614  39.0331449
  64.7221748 125.2812222  39.6210760  56.4757441 115.6262694  41.2862502
  55.8285356 116.3252644  41.1926978  57.2458456 116.0598838  41.6538750
  56.6521575 123.4643459  39.3459322  57.5813635 123.6154618  39.1728289
  56.2312605 123.5527480  38.4907968  50.9759366 122.2743356  40.0299278
  50.8379164 121.5423595  40.6310817  51.8864289 122.1852256  39.7483466
  59.9374314 124.2131760  24.7783757  59.3203484 123.4878588  24.6816809
  59.4690802 124.9741121  24.4350831  53.6041667 121.9863315  39.5182958
  54.3141285 121.3456508  39.4769576  53.5610975 122.2376210  40.4409139
  52.3170601 118.9728533  41.3378597  51.7807958 118.5219272  41.9900194
  51.7287309 119.1074442  40.5949062  51.7272860 118.4317185  23.9005061
  50.8502326 118.3105985  23.5367308  52.2030613 117.6403263  23.6483950
  48.0509722 118.1084541  38.4231592  47.9667911 117.5010210  37.6882002
  47.2292428 118.5993559  38.4241088  58.2233436 116.5938104  33.7901787
  58.7202135 115.8408067  33.4702857  57.4520417 116.6302421  33.2244996
  66.0763193 122.2978470  35.4320078  66.0653069 123.1803185  35.0614011
  65.2080573 121.9450021  35.2374615  54.8068404 118.7355487  33.5173471
  54.4366192 118.1826528  34.2054377  55.3027497 118.1313621  32.9648471
  62.6935768 121.1927111  31.8990244  63.1596220 122.0255103  31.8250547
  63.1443268 120.7272093  32.6035503  60.6652430 113.5607698  35.9381146
  59.7515510 113.7911925  36.1063353  61.0945532 113.6446142  36.7895178
  60.4358889 121.7497590  38.4381040  59.7830339 121.9973497  37.7833492
  60.8139269 120.9361728  38.1043517  56.4846462 122.4917401  44.9247077
  55.8087099 122.3911530  45.5949452  57.3074096 122.3356615  45.3883074
  50.2033738 116.1459478  39.7626577  50.2675065 117.0074309  39.3503975
  50.1400858 115.5333480  39.0298936  49.6786011 118.2182611  43.4099612
  50.3058049 117.8359688  44.0237136  48.8213929 117.9996813  43.7755304
  46.4551553 120.0259040  29.3417967  46.7504994 119.1169718  29.2885020
  45.5539589 120.0046779  29.0198969  49.9845800 118.1015036  35.3245515
  49.2632386 118.7151004  35.1852988  50.7739056 118.6372801  35.2462161
  52.7872114 115.4369463  41.5986167  53.3106516 115.6831759  42.3612476
  52.5684447 116.2689498  41.1789304  48.1839395 117.7073138  29.4657292
  47.8552101 116.8270516  29.2832398  48.5378766 117.6520806  30.3533681
  51.2981218 117.9946107  29.8332769  51.6377291 118.5232029  29.1111378
  51.7453339 118.3326513  30.6091336  53.9924659 116.3783158  39.2835837
  53.6521479 115.5790971  39.6856517  53.2863665 116.6784869  38.7112671
  54.6441131 113.4632470  37.7363160  55.4667200 112.9892949  37.6142051
  54.8879194 114.2422954  38.2361847  53.2849365 116.4920729  28.0326062
  54.0057728 116.8701982  27.5289779  52.6614669 117.2109606  28.1361040
  57.4280488 117.1965878  28.9684395  57.6444103 118.0790516  28.6673223
  56.9474555 116.8052091  28.2390037  52.1679710 120.1551591  35.5455139
  52.0224290 120.4691894  36.4379421  51.6904913 120.7736491  34.9926038
  54.0276092 117.1454139  35.5936029  54.0137661 116.2495232  35.2568327
  54.7448521 117.1524803  36.2274315  55.8802223 117.5791479  37.6389156
  55.6220001 118.5008550  37.6373487  55.3487263 117.1821914  38.3289620
  53.4312988 116.0268519  30.8623599  53.5528900 115.0985166  31.0614486
  53.1415031 116.0407205  29.9501914  56.3004179 113.7123430  33.9990319
  56.3225876 113.7762763  33.0442298  56.7172238 112.8727938  34.1930825
  66.6787803 123.4478689  32.0369541  67.1218949 122.6986015  31.6388664
  65.8014313 123.4388826  31.6543273  52.9154068 117.5400517  45.0713531
  52.9642223 118.4162640  44.6891301  53.4576582 116.9977910  44.4985175
  63.5206789 124.9334106  41.6647397  63.5704794 124.7684114  42.6062920
  63.4120712 124.0661365  41.2745278  60.8110551 120.9165034  42.9806704
  61.7120414 120.7771499  42.6890702  60.8858526 121.0819489  43.9204881
  55.1453356 118.2931889  41.8259890  54.2756666 118.5865455  41.5542479
  55.3812837 118.8772334  42.5467154  66.2220668 124.9183928  34.4291989
  67.0567559 125.3573732  34.5929549  66.3579797 124.4422581  33.6100235
  63.2712174 122.4763663  40.3769477  63.7466295 122.6691309  39.5688328
  62.3477739 122.5322848  40.1312860  57.8492390 114.5111506  39.3425310
  58.3674334 115.2472533  39.0171799  57.4947523 114.8175499  40.1772070
  49.4291328 119.3716187  27.4586716  48.7360573 119.4460542  26.8026752
  49.1843080 118.6076531  27.9808233  58.1004984 110.9311789  34.8626207
  58.3806738 110.2634978  35.4886634  58.8855591 111.1240884  34.3500871
  61.9713843 119.3529423  38.6097782  62.9231266 119.4527520  38.6310006
  61.8017293 118.5607691  39.1195867  59.9928222 116.4385006  38.7957183
  59.3978154 116.7190019  38.1003672  59.7077919 116.9278907  39.5673924
  64.4501920 122.5735542  37.7240082  64.4178241 121.6351543  37.9099766
  65.0602544 122.6519579  36.9905907  56.2885251 121.4431595  23.7667286
  57.2344356 121.3137803  23.8355704  55.9099496 120.7046257  24.2436714
  64.5996409 119.3646586  37.7698365  64.0835458 118.5805042  37.5828294
  65.4836357 119.0365302  37.9344884  62.2607136 113.1087601  33.7294178
  62.0631957 112.8002689  34.6137510  62.8706841 113.8349240  33.8592108
  70.2678470 123.6351549  36.8646119  70.9981859 123.3736837  37.4253822
  69.6585416 122.8980271  36.9048187  68.3493767 121.7759412  37.4620570
  67.6226931 121.6415377  36.8537061  67.9341054 122.0836240  38.2677288
  54.4728168 119.3681572  23.7022171  53.5659624 119.0714684  23.7784885
  54.7504149 119.0711390  22.8356457  56.0890234 113.9118461  29.8566412
  55.2790963 113.5665546  30.2321658  56.7774651 113.6026005  30.4454024
  58.0180782 112.9896508  31.4790709  58.5711821 113.4091962  32.1380732
  58.2550869 112.0632256  31.5213665  54.0413882 118.9783582  47.2593473
  53.9410609 119.9277939  47.1905564  53.8235424 118.6501821  46.3869543
  53.2426953 116.2268507  23.8434150  54.1046117 116.5523405  24.1029968
  53.4277297 115.4400003  23.3307216  61.3959590 115.0997033  30.9869373
  60.8158259 115.7581837  30.6047426  61.1295522 114.2774378  30.5756791
  59.8463156 114.5002091  33.1890694  60.3462934 114.6118626  32.3805012
  60.4898764 114.1963144  33.8291502  53.9045152 122.4080721  46.0758535
  53.4212233 123.2081081  46.2822424  53.9906091 122.4188666  45.1225979
  60.1784468 117.2597124  30.0425722  59.2910323 117.5446774  29.8245916
  60.5938457 117.0990887  29.1952998  63.5299004 117.2843645  33.7580061
  64.3059394 117.7740097  34.0304678  62.8047138 117.7101699  34.2151930
  65.9671562 117.9971264  34.8154001  66.5616053 117.7567000  34.1047310
  66.0398146 117.2778394  35.4427538  60.1525491 122.7751660  30.2576012
  60.0960693 123.2320211  29.4183644  60.7053834 122.0142344  30.0798854
  63.9630297 118.5641392  31.0826131  63.7067231 118.1638027  31.9134339
  63.3383165 119.2785185  30.9576270  68.2742635 121.3037465  33.5897423
  67.7142193 121.3730654  34.3628985  67.6686138 121.1278449  32.8696919
  60.8860271 123.9656441  27.5528541  60.8309074 123.8000712  26.6116985
  60.2606326 124.6732474  27.7090731  45.6752786 119.2024505  41.3789963
  46.3211649 118.6923459  41.8677188  45.4669937 119.9393187  41.9533388
  54.1956396 113.4664550  27.1313859  54.1835066 114.4106390  27.2882130
  55.0879818 113.2834695  26.8373320  58.0108516 110.0607327  31.3859796
  57.2440911 109.5065813  31.5316478  58.4219221 110.1329195  32.2473948
  50.0150277 116.3492122  45.4764977  50.8781738 115.9928927  45.6868302
  49.4415687 116.0106017  46.1640382  69.4356901 127.2011821  38.3379487
  69.0921171 128.0913463  38.2618598  69.8035864 127.0113479  37.4749072
  71.2344567 126.4605380  33.4397225  71.5403444 125.6002744  33.1523140
  71.9597172 127.0523000  33.2396219  71.5046185 128.8899616  35.9381146
  70.5909265 129.1203842  36.1063353  71.9339286 128.9738060  36.7895178
  68.9398739 126.2603706  34.8626207  69.2200493 125.5926895  35.4886634
  69.7249346 126.4532802  34.3500871  73.1000890 128.4379519  33.7294178
  72.9025711 128.1294607  34.6137510  73.7100596 129.1641158  33.8592108
  68.8574537 128.3188426  31.4790709  69.4105576 128.7383879  32.1380732
  69.0944623 127.3924174  31.5213665  68.8502270 125.3899244  31.3859796
  68.0834666 124.8357731  31.5316478  69.2612975 125.4621113  32.2473948
   2.6770388  29.3315442  30.6626242   2.2334243  28.5451821  30.3447147
   3.3387602  29.5194593  29.9970133   4.7751627  29.6118242  28.6907644
   4.7570102  30.4327123  28.1987913   5.6971547  29.4872317  28.9157785
   5.6867467  26.2514080  31.0858362   5.5352974  26.0224632  30.1688445
   5.6772147  27.2084682  31.0989707   7.3959674  29.2833203  29.1634844
   7.3372220  28.5992423  28.4965427   7.7979192  30.0252193  28.7115470
   5.8811348  28.9848120  31.7398654   6.4251252  29.5978078  31.2453609
   5.2998193  29.5427699  32.2565667   9.2040142  28.4444174  31.0759975
   8.4135686  28.4268313  30.5364475   8.9673497  28.9832468  31.8309012
  10.8256214  27.7133582  28.6334725  10.5341023  28.0763563  29.4698186
  10.2128346  27.0000590  28.4548057   4.0037407  26.6307887  33.6027410
   4.8728566  26.8048539  33.2414045   3.5244158  27.4502304  33.4803140
  15.6629882  38.3396513  23.0072685  16.3008292  38.2203260  22.3036025
  15.5450725  39.2877357  23.0660637  12.4719589  38.2923941  22.9434210
  12.1338100  38.1765006  22.0554745  13.3409357  37.8915106  22.9235216
  12.9539372  39.4458793  28.9020415  12.9428012  39.0511591  28.0300919
  13.1160011  38.7124865  29.4954187   5.8770836  41.6410609  21.7715321
   6.6692128  41.3001434  21.3561620   6.1167486  41.7505584  22.6917474
   9.6746633  42.2295905  27.8499599   9.3836499  43.1341535  27.7346265
  10.3103617  42.2712432  28.5643669  10.6002840  39.6072753  24.4400959
  11.1966412  39.3828775  23.7257922  10.6577811  38.8657499  25.0426407
  20.6179578  36.0023200  20.9858872  21.3504750  35.4322417  21.2196701
  19.8618934  35.6144800  21.4265377  18.1404998  29.7144774  25.4453480
  17.8088323  30.5840185  25.2214695  17.5450612  29.3981058  26.1247511
  14.6336518  41.9157320  24.8449393  14.3337241  42.8182359  24.7365200
  14.2887577  41.6489503  25.6970546  18.0333662  34.4339860  22.5246830
  17.1250539  34.3655269  22.2305591  17.9821257  34.9111805  23.3528656
   9.6157298  48.6801640  17.8120361   9.5381327  49.6309465  17.8908841
   9.0118941  48.3347513  18.4695287  12.1074527  35.8529506  30.4681727
  11.3307861  36.4123426  30.4584592  12.7465090  36.3386289  30.9896598
  19.8995308  32.6356299  24.3024704  19.2569688  32.9288832  23.6564499
  19.3950237  32.5209219  25.1077901  10.3620900  38.6614959  30.0299694
  11.1035584  39.2000003  29.7534518   9.6557885  39.2881248  30.1871246
  15.8376239  40.8044100  28.6271856  16.2459595  40.3626510  27.8826488
  15.1153501  40.2296727  28.8806049  12.1907309  35.7416706  26.0005413
  13.0368505  36.1656120  26.1440062  12.1305947  35.0850331  26.6943976
  16.1605054  41.3645290  22.3824145  15.5313916  41.5291004  21.6800213
  15.7730716  41.7786900  23.1535109  20.0394286  42.2999728  19.7368509
  19.3545324  42.6798629  19.1865542  20.1238135  42.9095055  20.4700456
  15.3406755  33.4021075  27.6586587  15.0967687  34.1563135  27.1220862
  15.6166685  33.7806422  28.4933834  17.2945218  39.9459687  26.3363852
  17.5062113  40.5891447  25.6598233  17.2474966  39.1122004  25.8685782
  11.7133016  41.1019698  19.6474230  12.1771361  41.3807401  18.8578852
  11.4489814  40.2003143  19.4647321   8.6057097  40.6491180  22.5853993
   9.1758454  41.0778448  21.9471478   9.1965209  40.3673765  23.2838179
   9.0982263  35.8154607  30.8315004   8.4680924  36.4970888  31.0650401
   8.9918351  35.7037689  29.8868143  18.4091045  42.8231643  24.5086209
  19.2308489  42.4211830  24.2268891  18.4053448  42.7199877  25.4602325
  12.1747649  42.3715686  26.6646920  12.2392081  42.8336093  27.5005092
  11.4658573  41.7413051  26.7929230  26.4997039  39.1670391  20.8571181
  25.7460747  38.5977789  20.7015185  26.6344580  39.1333056  21.8041816
   8.3763006  30.1175373  33.1940255   7.9829952  29.5641572  33.8687900
   9.1929147  30.4285952  33.5846773   7.1519949  44.6724988  19.1876579
   7.3286577  45.5942952  18.9997562   7.9476782  44.3583407  19.6170958
  11.2930967  31.5333252  30.7860512  12.0340681  32.1340405  30.7064975
  11.5248890  30.7910890  30.2278555   6.4372305  36.7189620  29.0638742
   6.3225820  35.8174877  29.3645841   5.5816823  36.9653316  28.7123558
  13.5164143  44.6607360  30.6626242  13.0727997  43.8743738  30.3447147
  14.1781357  44.8486510  29.9970133   8.2751264  46.1903161  25.1886921
   8.8258689  46.0620225  24.4163915   7.4362740  46.4898050  24.8381814
  15.6145381  44.9410160  28.6907644  15.5963856  45.7619041  28.1987913
  16.5365301  44.8164235  28.9157785  12.0718435  42.4554289  29.5331152
  12.6046772  41.6942577  29.3030460  11.5432516  42.1627941  30.2755306
  18.4163994  39.7789302  22.1617010  17.7587668  40.4688564  22.2497139
  19.2204393  40.1685734  22.5050997  17.2269453  38.1333675  20.2120952
  17.7401334  38.7663667  20.7142662  17.8770677  37.5334870  19.8464312
  13.7050284  35.6083130  22.4579293  12.7872845  35.8298077  22.3000981
  14.1210427  35.6829441  21.5991000  17.9931249  43.1139676  18.3400095
  17.5393576  42.2730586  18.3965285  17.3625216  43.7501075  18.6774875
  16.4364188  44.9516173  19.2749913  16.7287163  45.5121230  18.5562278
  16.9462809  45.2444734  20.0303072  11.3997813  45.7296524  20.3643366
  11.3573992  45.9557370  19.4351898  12.3160512  45.4959899  20.5129167
  14.8463447  36.1980592  27.2623995  15.2012835  36.4252065  28.1218461
  15.4935578  36.5298969  26.6401251  20.5761184  39.3199028  17.9673324
  20.4379083  39.5100624  17.0394513  20.2197403  40.0818410  18.4241375
  20.6030564  41.3875555  22.9784596  21.0367070  41.2950844  23.8267650
  21.3162144  41.3633055  22.3404612   9.5163614  42.6059553  20.1605329
  10.3104213  42.1109873  19.9587904   8.8055307  42.0777416  19.7973034
  14.3358459  44.9877649  24.5117696  14.3895481  45.5568585  25.2795412
  13.4673240  45.1579534  24.1471734   7.2156852  34.6895205  25.9942148
   7.8879905  34.4812567  25.3454797   6.3886638  34.4917291  25.5547380
  21.4646113  41.4299255  25.5117481  21.6582003  42.3345066  25.7576756
  21.3646731  40.9706674  26.3456066  13.1182424  31.3157146  28.0107809
  12.4710339  32.0147096  27.9172285  13.8883439  31.7493290  28.3784057
  16.5261222  41.5805998  31.0858362  16.3746728  41.3516550  30.1688445
  16.5165901  42.5376599  31.0989707  13.2946558  39.1537911  26.0704628
  14.2238618  39.3049070  25.8973596  12.8737588  39.2421932  25.2153275
  12.0934890  43.1788575  23.8403166  11.9545976  42.8107360  24.7129104
  11.3049486  43.6936215  23.6687124  12.6883042  48.2797672  15.1828702
  12.8634798  47.8085715  15.9974325  12.0015830  48.9063438  15.4109963
  13.6440105  42.5570178  21.2292004  13.3089938  42.5170948  22.1249654
  13.1444051  41.8914894  20.7562414   7.6184349  37.9637808  26.7544585
   7.4804147  37.2318047  27.3556124   8.5289273  37.8746708  26.4728773
  10.2466650  37.6757767  26.2428264  10.9566268  37.0350959  26.2014883
  10.2035958  37.9270662  27.1654445  18.2353429  44.6125121  29.1634844
  18.1765975  43.9284341  28.4965427  18.6372947  45.3544111  28.7115470
   8.9595584  34.6622985  28.0623904   8.4232941  34.2113724  28.7145500
   8.3712292  34.7968894  27.3194368   7.2544127  51.4287034  21.9568563
   7.4940726  52.0605559  22.6347581   6.4113324  51.0775074  22.2433922
  18.2370836  42.5764705  27.3948823  17.3497615  42.2390626  27.5175222
  18.8069387  41.8447736  27.6317589  11.7671989  47.2366157  24.3610067
  11.6942161  48.0421128  24.8729371  11.3249382  47.4358123  23.5358088
  11.5561769  46.4737927  17.8712888  10.7729291  47.0159607  17.9651113
  12.2554514  46.9911907  18.2707129  22.7188176  37.9872922  22.1565385
  22.7078053  38.8697637  21.7859318  21.8505556  37.6344473  21.9619922
  14.2270673  47.1352991  26.5168225  14.9398645  47.7700456  26.4444127
  13.7360701  47.2316857  25.7008227  15.9488200  41.0404244  18.0885517
  15.0144478  41.1605706  17.9190221  16.1264868  40.1376710  17.8245527
  19.3360751  36.8821563  18.6235551  19.8021203  37.7149554  18.5495854
  19.7868252  36.4166544  19.3280809   9.2782586  44.8847434  27.3373796
   9.9792046  45.5183917  27.4903190   8.8077701  45.2262166  26.5769435
  17.0783872  37.4392042  25.1626346  16.4255322  37.6867949  24.5078799
  17.4564252  36.6256180  24.8288824  14.0391046  47.4751735  19.2654517
  14.2213441  46.6573391  19.7282269  14.8624032  47.6919427  18.8279407
  14.3733212  46.4019920  16.5269565  14.9020978  45.8912375  15.9139727
  14.6361431  46.0862450  17.3915098  13.1271445  38.1811853  31.6492383
  12.4512082  38.0805982  32.3194759  13.9499079  38.0251067  32.1128381
   4.8750304  44.4183789  24.2704899   5.4603741  43.6727477  24.4032803
   4.6775143  44.7287746  25.1541563   7.7288960  47.4535037  19.2867341
   7.0599335  47.9381164  18.8031381   7.5901829  47.7004257  20.2010720
  11.8694228  49.4878780  25.8849999  12.4212536  49.6510402  26.6499085
  12.2100422  50.0783218  25.2130024   6.3210994  33.9077063  30.1344918
   6.9483033  33.5254140  30.7482443   5.4638913  33.6891265  30.5000611
  16.7205102  44.3140038  31.7398654  17.2645006  44.9269996  31.2453609
  16.1391947  44.8719616  32.2565667  15.0062615  47.4360756  22.8713682
  14.8813755  46.6350496  22.3624627  15.6641707  47.9306949  22.3827652
  17.0697524  45.2369776  24.4993232  16.1227859  45.1175127  24.4271558
  17.4180297  44.3492274  24.5819493   9.4297097  31.1263915  28.3231474
   9.9531499  31.3726211  29.0857783   9.2109430  31.9583950  27.9034611
  14.0743957  45.0322492  20.6997584  13.9268920  44.1039200  20.8805154
  14.8997451  45.0542583  20.2154659  17.6778079  45.8551051  21.7862457
  18.6024626  45.6493912  21.6486908  17.5093382  45.6067452  22.6951798
  10.6349642  32.0677610  26.0081144  10.2946463  31.2685423  26.4101824
   9.9288649  32.3679321  25.4357977  12.5227206  33.2685931  24.3634463
  12.2644984  34.1903002  24.3618793  11.9912247  32.8716366  25.0534927
  17.4673395  46.3736718  17.1424548  17.6410273  45.8083141  16.3898401
  17.9602286  47.1737613  16.9604038   3.2850355  38.3851387  25.2088107
   2.7403823  39.1611195  25.3408381   4.1629705  38.7322192  25.0507228
  23.3212786  39.1373141  18.7614848  23.7643932  38.3880466  18.3633971
  22.4439297  39.1283278  18.3788580  18.4548568  45.6903483  14.2421446
  19.1499472  46.3110175  14.4608761  18.7971718  44.8398834  14.5173824
   4.0716377  37.5121284  28.1018264   3.3298113  37.6603919  28.6882894
   3.7509121  37.7729549  27.2385013  20.3539991  43.1403188  15.7708777
  20.8791315  43.4790461  15.0458097  20.2662343  42.2050204  15.5871912
  12.0160039  47.0537262  27.8998654  12.3247166  46.8086409  28.7721353
  12.8135522  47.2583900  27.4117524  12.0380652  49.2075172  20.1304030
  11.5985642  48.7151550  20.8236887  12.7888768  48.6648139  19.8896106
   4.5172991  45.3986712  20.1328658   5.3431010  45.0990484  19.7527302
   4.1667043  44.6294335  20.5818447   9.4854524  44.7513181  22.2026332
   8.8634533  44.0883886  21.9028560  10.1559391  44.7774313  21.5199980
   9.5579051  33.2294969  31.7958838   9.6067207  34.1057091  31.4136608
  10.1001565  32.6872362  31.2230481  20.0433897  43.7736092  31.0759975
  19.2529441  43.7560231  30.5364475  19.8067251  44.3124386  31.8309012
  20.1631772  40.6228558  28.3892704  20.2129777  40.4578566  29.3308226
  20.0545695  39.7555817  27.9990584  17.4535534  36.6059486  29.7052010
  18.3545397  36.4665951  29.4136008  17.5283509  36.7713941  30.6450188
  11.7878340  33.9826341  28.5505197  10.9181649  34.2759907  28.2787785
  12.0237820  34.5666786  29.2712460  21.6649969  43.0425500  28.6334725
  21.3734777  43.4055480  29.4698186  21.0522100  42.3292508  28.4548057
  22.8645651  40.6078380  21.1537295  23.6992542  41.0468184  21.3174856
  23.0004780  40.1317033  20.3345541  19.9137157  38.1658114  27.1014783
  20.3891279  38.3585761  26.2933635  18.9902722  38.2217300  26.8558167
  14.4917373  30.2005958  26.0670617  15.0099317  30.9366985  25.7417106
  14.1372506  30.5069951  26.9017376  18.6138826  35.0423874  25.3343089
  19.5656249  35.1421972  25.3555313  18.4442276  34.2502143  25.8441173
  16.6353205  32.1279458  25.5202490  16.0403138  32.4084470  24.8248978
  16.3502902  32.6173359  26.2919231  21.0926904  38.2629994  24.4485388
  21.0603224  37.3245995  24.6345072  21.7027527  38.3414031  23.7151213
  21.2421392  35.0541038  24.4943672  20.7260441  34.2699494  24.3073600
  22.1261341  34.7259754  24.6590191  26.9103454  39.3246001  23.5891425
  27.6406842  39.0631289  24.1499129  26.3010399  38.5874723  23.6293493
  24.9918751  37.4653864  24.1865876  24.2651914  37.3309829  23.5782368
  24.5766038  37.7730692  24.9922594  12.8148927  41.1843793  31.9513249
  13.7351937  41.3622392  32.1453296  12.7798510  40.2399839  31.7992949
   5.8111000  39.0944828  24.5936031   6.0297009  40.0261936  24.6124064
   6.2236774  38.7352802  25.3790834  10.6838865  34.6678034  33.9838780
  10.5835592  35.6172391  33.9150871  10.4660407  34.3396273  33.1114850
  10.5470135  38.0975173  32.8003841  10.0637217  38.8975533  33.0067730
  10.6331074  38.1083117  31.8471285   6.4743473  41.9879707  24.8372275
   7.4286726  41.9563650  24.7702207   6.2755996  41.5270331  25.6522501
   7.0642855  40.5580823  27.4043073   7.8835744  41.0524902  27.4277910
   7.3379662  39.6412791  27.3760640  20.1723987  32.9738097  20.4825367
  20.9484377  33.4634549  20.7549984  19.4472121  33.3996151  20.9397237
  22.6096546  33.6865716  21.5399308  23.2041036  33.4461452  20.8292616
  22.6823129  32.9672846  22.1672844   4.8293701  47.5299327  21.8542473
   4.6948169  46.7699728  21.2880471   4.4125764  48.2540227  21.3871262
  24.9167618  36.9931917  20.3142729  24.3567176  37.0625106  21.0874291
  24.3111122  36.8172901  19.5942225   7.9862827  48.4268644  22.0660916
   7.8695211  49.3714076  21.9639606   7.1655273  48.1242205  22.4546715
   2.3177769  34.8918957  28.1035270   2.9636633  34.3817911  28.5922495
   2.1094920  35.6287639  28.6778695  14.8431161  41.9599805  33.6027410
  15.7122321  42.1340457  33.2414045  14.3637913  42.7794221  33.4803140
   9.0117341  49.0796906  25.2816844   9.9144588  49.1120516  25.5983339
   8.7854711  48.1497357  25.2963180  10.7670943  47.8327892  21.9426923
   9.8166574  47.8329754  21.8291295  11.0703430  47.0860627  21.4262957
   6.6575260  32.0386574  32.2010284   7.5206721  31.6823379  32.4113609
   6.0840671  31.7000469  32.8885688  26.5023637  53.6688431  23.0072685
  27.1402047  53.5495178  22.3036025  26.3844480  54.6169275  23.0660637
  23.3113343  53.6215859  22.9434210  22.9731855  53.5056923  22.0554745
  24.1803111  53.2207024  22.9235216  19.1700159  55.4751335  18.9331101
  18.6065024  55.3841272  18.1647388  19.0552554  54.6551240  19.4133593
  23.7933126  54.7750710  28.9020415  23.7821767  54.3803509  28.0300919
  23.9553766  54.0416783  29.4954187  16.7164591  56.9702527  21.7715321
  17.5085883  56.6293351  21.3561620  16.9561241  57.0797502  22.6917474
  24.7499718  59.1422303  14.2445566  24.0987697  59.7276383  13.8579579
  25.5444080  59.6728498  14.3040603  18.6755345  56.2311440  14.6432700
  19.4486221  55.6840427  14.5045576  19.0280744  57.0955689  14.8547161
  20.5140387  57.5587822  27.8499599  20.2230253  58.4633453  27.7346265
  21.1497372  57.6004350  28.5643669  21.4396594  54.9364671  24.4400959
  22.0360166  54.7120693  23.7257922  21.4971566  54.1949416  25.0426407
  21.0121623  52.3904106  12.2751150  21.2647143  51.8685627  11.5134613
  20.0746182  52.2270252  12.3777833  26.0564905  51.3939884  20.0825893
  26.8427995  50.9759308  19.7316310  26.3203610  52.2985977  20.2507541
  26.2274983  56.8312735  14.7814550  25.5920816  56.9047361  15.4935454
  25.8972389  57.4206334  14.1033629  31.4573332  51.3315118  20.9858872
  32.1898504  50.7614334  21.2196701  30.7012688  50.9436718  21.4265377
  20.7317911  54.2932212  14.4775525  20.6154169  53.6177115  15.1456609
  20.8420171  53.8064586  13.6607678  23.0749452  53.7542359  18.1822214
  22.7107659  53.2272980  18.8935135  23.9316568  53.3640828  18.0088699
  28.9798753  45.0436692  25.4453480  28.6482078  45.9132103  25.2214695
  28.3844366  44.7272976  26.1247511  22.7154939  48.7832259  13.1783562
  22.8829342  49.6512495  13.5454034  22.5252108  48.9459541  12.2544852
  25.4730272  57.2449238  24.8449393  25.1730995  58.1474277  24.7365200
  25.1281332  56.9781421  25.6970546  18.9242754  53.6963035  20.8786097
  17.9993250  53.5639249  21.0863789  19.1727167  54.4757254  21.3756040
  28.8727416  49.7631778  22.5246830  27.9644293  49.6947186  22.2305591
  28.8215012  50.2403723  23.3528656  22.6944160  51.2389916  14.1630229
  22.5743785  51.6846967  15.0015710  21.9996748  51.5875234  13.6043767
  16.2851565  53.3396308  21.7129886  16.4143946  53.5930787  22.6269298
  15.6049016  53.9324016  21.3934541  20.4551052  64.0093558  17.8120361
  20.3775082  64.9601383  17.8908841  19.8512696  63.6639431  18.4695287
  22.9468282  51.1821424  30.4681727  22.1701616  51.7415344  30.4584592
  23.5858845  51.6678206  30.9896598  30.7389063  47.9648216  24.3024704
  30.0963443  48.2580749  23.6564499  30.2343991  47.8501137  25.1077901
  28.3929226  51.7111390  14.9910563  29.3047082  51.9438776  14.8158261
  27.8838873  52.2948434  14.4285642  21.2014654  53.9906877  30.0299694
  21.9429339  54.5291921  29.7534518  20.4951640  54.6173166  30.1871246
  26.6769994  56.1336017  28.6271856  27.0853350  55.6918428  27.8826488
  25.9547255  55.5588645  28.8806049  23.0301064  51.0708624  26.0005413
  23.8762259  51.4948038  26.1440062  22.9699702  50.4142248  26.6943976
  26.9998809  56.6937208  22.3824145  26.3707671  56.8582922  21.6800213
  26.6124471  57.1078818  23.1535109  30.8788040  57.6291646  19.7368509
  30.1939079  58.0090547  19.1865542  30.9631890  58.2386972  20.4700456
  26.1800509  48.7312992  27.6586587  25.9361441  49.4855053  27.1220862
  26.4560440  49.1098340  28.4933834  28.1338972  55.2751605  26.3363852
  28.3455867  55.9183365  25.6598233  28.0868720  54.4413921  25.8685782
  25.7365201  47.8869425  23.2400424  24.8749680  48.1850679  23.5317162
  25.7627636  48.1039824  22.3081457  22.5526770  56.4311616  19.6474230
  23.0165116  56.7099319  18.8578852  22.2883568  55.5295061  19.4647321
  19.4450851  55.9783098  22.5853993  20.0152209  56.4070366  21.9471478
  20.0358963  55.6965682  23.2838179  21.4895656  52.5534768  16.4563795
  22.1919700  53.0055812  16.9237721  21.1576285  51.9118587  17.0843688
  19.9376018  51.1446525  30.8315004  19.3074679  51.8262806  31.0650401
  19.8312106  51.0329607  29.8868143  15.2320990  50.8118321  21.7580929
  14.4420044  51.0675850  21.2821039  15.7232238  51.6266659  21.8632969
  29.2484800  58.1523560  24.5086209  30.0702244  57.7503748  24.2268891
  29.2447203  58.0491794  25.4602325  17.1835736  51.1762900  18.7164405
  16.3866899  51.2881595  19.2347901  16.9561328  51.5149553  17.8505296
  23.0141403  57.7007604  26.6646920  23.0785836  58.1628011  27.5005092
  22.3052327  57.0704968  26.7929230  13.5158693  51.0648812  24.1895919
  13.7666732  51.9495821  24.4553495  14.0518242  50.8853413  23.4171011
  37.3390793  54.4962309  20.8571181  36.5854501  53.9269707  20.7015185
  37.4738334  54.4624973  21.8041816  22.7289421  59.3675711  16.5325900
  22.5935096  60.2127247  16.9610748  23.2699234  59.5694989  15.7691834
  19.2156761  45.4467291  33.1940255  18.8223706  44.8933489  33.8687900
  20.0322901  45.7577869  33.5846773  16.1818818  56.8851149  17.1053825
  16.6943339  57.6794399  17.2559390  16.8341531  56.1877440  17.0387427
  17.9913703  60.0016905  19.1876579  18.1680331  60.9234870  18.9997562
  18.7870537  59.6875325  19.6170958  22.1324722  46.8625170  30.7860512
  22.8734435  47.4632323  30.7064975  22.3642645  46.1202808  30.2278555
  17.2766060  52.0481537  29.0638742  17.1619575  51.1466794  29.3645841
  16.4210577  52.2945234  28.7123558  24.3557897  59.9899278  30.6626242
  23.9121752  59.2035656  30.3447147  25.0175111  60.1778428  29.9970133
  19.1145019  61.5195079  25.1886921  19.6652444  61.3912143  24.4163915
  18.2756495  61.8189968  24.8381814  26.4539136  60.2702077  28.6907644
  26.4357611  61.0910959  28.1987913  27.3759056  60.1456153  28.9157785
  22.9112190  57.7846207  29.5331152  23.4440526  57.0234495  29.3030460
  22.3826271  57.4919859  30.2755306  26.0781885  42.8906273  25.0624794
  25.7346154  43.7807915  24.9863904  26.4460847  42.7007931  24.1994379
  14.1467735  55.2139803  17.8813396  14.9842957  55.6236812  17.6647104
  14.3246003  54.2739246  17.8513590  26.0432167  52.8814884  13.5697229
  25.5278791  53.6519489  13.8085616  25.7709476  52.2080020  14.1930290
  23.6279278  47.7264585  18.6282467  22.7720875  47.3371435  18.4488106
  24.0406230  47.8056546  17.7682253  25.1578425  45.2610928  23.0274027
  24.6543221  45.2241063  22.2141832  25.4509032  46.1703671  23.0870684
  21.4021311  45.3449658  22.0340209  22.2674308  45.1492466  21.6746098
  21.4698820  45.1160010  22.9609565  31.0166441  55.6347239  15.5050402
  30.2395884  55.2958398  15.0605564  31.6957922  55.6399862  14.8305367
  25.8318471  50.7541976  15.3957010  25.5268606  51.0688125  16.2467153
  26.7848913  50.8323396  15.4384343  24.2764902  56.9132199  17.0449964
  23.7486264  56.1784959  16.7323201  23.7752405  57.6906876  16.7989932
  29.2557748  55.1081220  22.1617010  28.5981423  55.7980481  22.2497139
  30.0598148  55.4977652  22.5050997  19.0083630  47.5751866  19.4056576
  19.5827382  47.3527047  18.6729768  19.5954612  47.6440560  20.1585177
  28.0663207  53.4625593  20.2120952  28.5795089  54.0955584  20.7142662
  28.7164431  52.8626788  19.8464312  19.3353217  49.6056327  13.4252461
  18.4990529  49.9431013  13.7461736  19.1957987  49.4705307  12.4879598
  21.3106298  44.4493115  18.1331645  20.6570710  44.1342132  17.5088260
  21.2686772  43.8268855  18.8591468  22.4217503  54.7312410  10.0484937
  21.5144564  54.5001663  10.2476086  22.9188535  53.9350029  10.2358919
  25.3285581  63.4409917  12.9681623  24.6547280  63.7441614  13.5766581
  25.7151403  64.2438997  12.6187080  24.5444038  50.9375048  22.4579293
  23.6266599  51.1589995  22.3000981  24.9604182  51.0121359  21.5991000
  25.3279086  52.3366464  17.5881973  26.0750905  52.8487861  17.2789095
  25.5970675  52.0150517  18.4486366  23.6005736  54.8325005  14.5708927
  22.6916955  54.5484037  14.6681397  23.6300820  55.2524083  13.7112234
  28.8325003  58.4431594  18.3400095  28.3787331  57.6022504  18.3965285
  28.2018970  59.0792992  18.6774875  27.7757923  49.3723580  19.5700762
  27.0380680  48.8600966  19.9011005  28.0284696  48.9323962  18.7584039
  27.2757943  60.2808091  19.2749913  27.5680917  60.8413148  18.5562278
  27.7856563  60.5736652  20.0303072  27.8769550  42.1499832  20.1642531
  28.1828427  41.2897196  19.8768446  28.6022155  42.7417452  19.9641525
  14.1693906  52.5530519  18.5524129  13.9718306  51.9599879  17.8275196
  13.6140570  52.2482729  19.2700068  22.1490630  52.4453625  20.6718722
  22.2039240  51.4927462  20.5961199  21.3381832  52.6013064  21.1560021
  23.2981824  56.3733748  11.9097006  22.8601254  55.6569607  11.4502643
  24.0392265  56.6009863  11.3482097  20.0882990  51.0630685  18.4309101
  19.2750855  51.3624855  18.8374293  20.5841984  50.6686374  19.1483584
  22.2391568  61.0588442  20.3643366  22.1967747  61.2849288  19.4351898
  23.1554267  60.8251816  20.5129167  25.6857202  51.5272509  27.2623995
  26.0406589  51.7543983  28.1218461  26.3329333  51.8590886  26.6401251
  31.4154939  54.6490945  17.9673324  31.2772837  54.8392541  17.0394513
  31.0591157  55.4110328  18.4241375  19.5797065  48.6349040  24.0470336
  20.2196444  48.4937800  23.3493300  18.7474595  48.3483554  23.6708938
  31.4424318  56.7167472  22.9784596  31.8760825  56.6242761  23.8267650
  32.1555899  56.6924973  22.3404612  20.3557369  57.9351471  20.1605329
  21.1497967  57.4401791  19.9587904  19.6449061  57.4069334  19.7973034
  25.1752213  60.3169566  24.5117696  25.2289235  60.8860503  25.2795412
  24.3066994  60.4871451  24.1471734  16.6640132  52.0794553  16.2365081
  15.7337720  52.0179008  16.4535044  16.7597604  51.5570505  15.4401723
  16.5825681  48.6049365  18.8243323  16.8432498  49.5194699  18.7152484
  17.4042853  48.1373808  18.9739936  18.0550606  50.0187123  25.9942148
  18.7273660  49.8104485  25.3454797  17.2280393  49.8209209  25.5547380
  32.3039868  56.7591173  25.5117481  32.4975758  57.6636983  25.7576756
  32.2040486  56.2998592  26.3456066  23.9576178  46.6449064  28.0107809
  23.3104094  47.3439013  27.9172285  24.7277194  47.0785207  28.3784057
  27.3654976  56.9097916  31.0858362  27.2140483  56.6808467  30.1688445
  27.3559656  57.8668517  31.0989707  24.1340313  54.4829828  26.0704628
  25.0632373  54.6340988  25.8973596  23.7131343  54.5713849  25.2153275
  22.9328645  58.5080493  23.8403166  22.7939730  58.1399277  24.7129104
  22.1443241  59.0228132  23.6687124  23.5276797  63.6089589  15.1828702
  23.7028552  63.1377633  15.9974325  22.8409585  64.2355356  15.4109963
  24.4833860  57.8862096  21.2292004  24.1483692  57.8462866  22.1249654
  23.9837805  57.2206811  20.7562414  18.4578104  53.2929726  26.7544585
  18.3197902  52.5609964  27.3556124  19.3683027  53.2038626  26.4728773
  27.4193051  55.2318130  11.5029063  26.8022222  54.5064958  11.4062116
  26.9509540  55.9927490  11.1596138  21.0860404  53.0049685  26.2428264
  21.7960023  52.3642877  26.2014883  21.0429713  53.2562580  27.1654445
  29.0747183  59.9417038  29.1634844  29.0159729  59.2576258  28.4965427
  29.4766701  60.6836028  28.7115470  19.7989338  49.9914903  28.0623904
  19.2626695  49.5405641  28.7145500  19.2106047  50.1260812  27.3194368
  18.0937882  66.7578952  21.9568563  18.3334480  67.3897476  22.6347581
  17.2507078  66.4066992  22.2433922  29.0764590  57.9056622  27.3948823
  28.1891369  57.5682544  27.5175222  29.6463141  57.1739653  27.6317589
  10.7293737  54.2380714  20.7191875  11.4164777  53.9242444  20.1312890
  10.5741866  55.1422079  20.4459126  15.5328460  49.1270910  25.1476898
  15.4486648  48.5196580  24.4127308  14.7111166  49.6179929  25.1486395
  22.6065744  62.5658075  24.3610067  22.5335915  63.3713046  24.8729371
  22.1643137  62.7650040  23.5358088  22.3955523  61.8029845  17.8712888
  21.6123045  62.3451525  17.9651113  23.0948269  62.3203824  18.2707129
  25.7052173  47.6124474  20.5147093  26.2020873  46.8594436  20.1948164
  24.9339155  47.6488791  19.9490303  33.5581931  53.3164840  22.1565385
  33.5471807  54.1989555  21.7859318  32.6899310  52.9636390  21.9619922
  25.0664427  62.4644909  26.5168225  25.7792399  63.0992373  26.4444127
  24.5754456  62.5608775  25.7008227  26.7881954  56.3696161  18.0885517
  25.8538233  56.4897624  17.9190221  26.9658623  55.4668628  17.8245527
  22.2887142  49.7541857  20.2418778  21.9184930  49.2012897  20.9299684
  22.7846235  49.1499990  19.6893778  30.1754506  52.2113481  18.6235551
  30.6414958  53.0441472  18.5495854  30.6262006  51.7458462  19.3280809
  20.1176341  60.2139352  27.3373796  20.8185800  60.8475835  27.4903190
  19.6471456  60.5554084  26.5769435  28.2430737  58.5557302  15.6221703
  28.5190581  58.4413896  16.5315577  27.3735235  58.1574787  15.5833876
  28.1471168  44.5794068  22.6626452  27.2334248  44.8098294  22.8308659
  28.5764270  44.6632512  23.5140485  27.9177627  52.7683959  25.1626346
  27.2649077  53.0159867  24.5078799  28.2958007  51.9548098  24.8288824
  24.8784801  62.8043653  19.2654517  25.0607195  61.9865309  19.7282269
  25.7017787  63.0211345  18.8279407  25.2126966  61.7311838  16.5269565
  25.7414733  61.2204292  15.9139727  25.4755186  61.4154368  17.3915098
  23.9665200  53.5103771  31.6492383  23.2905837  53.4097900  32.3194759
  24.7892834  53.3542984  32.1128381  15.7144059  59.7475707  24.2704899
  16.2997496  59.0019395  24.4032803  15.5168897  60.0579664  25.1541563
  18.5682714  62.7826954  19.2867341  17.8993089  63.2673082  18.8031381
  18.4295584  63.0296175  20.2010720  10.3061714  52.3181307  22.9909342
  10.3445813  51.7844898  23.7846460   9.8002006  51.7916513  22.3720319
  22.7087983  64.8170698  25.8849999  23.2606291  64.9802319  26.6499085
  23.0494176  65.4075136  25.2130024  17.6852476  47.1645848  26.4871884
  17.7493802  48.0260679  26.0749282  17.6219596  46.5519849  25.7544243
  17.1604748  49.2368980  30.1344918  17.7876787  48.8546058  30.7482443
  16.3032667  49.0183182  30.5000611  27.5598857  59.6431955  31.7398654
  28.1038761  60.2561914  31.2453609  26.9785702  60.2011534  32.2565667
  13.9370291  51.0445409  16.0663273  14.2323732  50.1356088  16.0130327
  13.0358327  51.0233149  15.7444276  25.8456370  62.7652674  22.8713682
  25.7207509  61.9642413  22.3624627  26.5035461  63.2598867  22.3827652
  17.4664538  49.1201406  22.0490822  16.7451124  49.7337374  21.9098295
  18.2557794  49.6559171  21.9707468  27.9091278  60.5661694  24.4993232
  26.9621614  60.4467045  24.4271558  28.2574051  59.6784192  24.5819493
  20.2690852  46.4555833  28.3231474  20.7925253  46.7018129  29.0857783
  20.0503185  47.2875867  27.9034611  15.6658133  48.7259507  16.1902598
  15.3370839  47.8456886  16.0077704  16.0197503  48.6707176  17.0778988
  24.9137712  60.3614410  20.6997584  24.7662674  59.4331117  20.8805154
  25.7391205  60.3834501  20.2154659  18.7799956  49.0132477  16.5578076
  19.1196028  49.5418398  15.8356684  19.2272076  49.3512883  17.3336643
  28.5171833  61.1842969  21.7862457  29.4418381  60.9785830  21.6486908
  28.3487137  60.9359370  22.6951798  21.4743397  47.3969528  26.0081144
  21.1340217  46.5977341  26.4101824  20.7682403  47.6971238  25.4357977
  22.1259869  44.4818840  24.4608467  22.9485938  44.0079318  24.3387357
  22.3697932  45.2609324  24.9607153  20.7668103  47.5107098  14.7571369
  21.4876466  47.8888351  14.2535086  20.1433407  48.2295975  14.8606347
  24.9099226  48.2152247  15.6929701  25.1262840  49.0976885  15.3918529
  24.4293293  47.8238461  14.9635343  19.6498447  51.1737961  22.2700446
  19.5043028  51.4878264  23.1624727  19.1723651  51.7922861  21.7171344
  21.5094830  48.1640509  22.3181335  21.4956399  47.2681602  21.9813633
  22.2267258  48.1711172  22.9519621  23.3620961  48.5977849  24.3634463
  23.1038739  49.5194920  24.3618793  22.8306001  48.2008283  25.0534927
  28.3067150  61.7028636  17.1424548  28.4804027  61.1375058  16.3898401
  28.7996041  62.5029531  16.9604038  14.1244109  53.7143305  25.2088107
  13.5797578  54.4903113  25.3408381  15.0023459  54.0614110  25.0507228
  20.9131726  47.0454889  17.5868905  21.0347637  46.1171535  17.7859793
  20.6233768  47.0593575  16.6747221  23.7822917  44.7309799  20.7235625
  23.8044613  44.7949132  19.7687605  24.1990976  43.8914308  20.9176131
  34.1606541  54.4665059  18.7614848  34.6037687  53.7172384  18.3633971
  33.2833051  54.4575195  18.3788580  29.2942322  61.0195400  14.2421446
  29.9893227  61.6402093  14.4608761  29.6365472  60.1690752  14.5173824
  14.9110131  52.8413201  28.1018264  14.1691867  52.9895837  28.6882894
  14.5902876  53.1021467  27.2385013  31.1933745  58.4695106  15.7708777
  31.7185069  58.8082379  15.0458097  31.1056098  57.5342121  15.5871912
  22.8553794  62.3829180  27.8998654  23.1640920  62.1378326  28.7721353
  23.6529276  62.5875818  27.4117524  22.8774406  64.5367089  20.1304030
  22.4379396  64.0443468  20.8236887  23.6282523  63.9940057  19.8896106
  15.3566745  60.7278630  20.1328658  16.1824765  60.4282402  19.7527302
  15.0060797  59.9586252  20.5818447  20.3248278  60.0805098  22.2026332
  19.7028287  59.4175803  21.9028560  20.9953145  60.1066230  21.5199980
  13.5575350  58.6464957  21.0917592  12.7207258  58.2187131  20.9101593
  13.5298995  58.8397400  22.0288383  20.3972806  48.5586886  31.7958838
  20.4460961  49.4349009  31.4136608  20.9395320  48.0164279  31.2230481
  30.8827651  59.1028010  31.0759975  30.0923195  59.0852148  30.5364475
  30.6461006  59.6416303  31.8309012  31.0025526  55.9520476  28.3892704
  31.0523531  55.7870483  29.3308226  30.8939450  55.0847735  27.9990584
  19.8861785  58.6309022  15.6784793  20.0349905  59.3144486  15.0251465
  20.6928229  58.6114112  16.1934248  28.2929289  51.9351404  29.7052010
  29.1939152  51.7957869  29.4136008  28.3677263  52.1005859  30.6450188
  22.6272094  49.3118259  28.5505197  21.7575404  49.6051825  28.2787785
  22.8631574  49.8958704  29.2712460  32.5043723  58.3717417  28.6334725
  32.2128532  58.7347398  29.4698186  31.8915854  57.6584426  28.4548057
  33.7039406  55.9370297  21.1537295  34.5386297  56.3760101  21.3174856
  33.8398534  55.4608950  20.3345541  30.7530911  53.4950032  27.1014783
  31.2285033  53.6877678  26.2933635  29.8296477  53.5509218  26.8558167
  17.6414418  54.6574199  16.6845861  17.3960460  53.7536529  16.8826072
  17.8110333  54.6591350  15.7425339  25.3311128  45.5297876  26.0670617
  25.8493072  46.2658903  25.7417106  24.9766261  45.8361869  26.9017376
  16.9110066  50.3902557  14.1832023  16.2179311  50.4646912  13.5272059
  16.6661817  49.6262900  14.7053540  25.5823722  41.9498158  21.5871514
  25.8625476  41.2821347  22.2131940  26.3674329  42.1427254  21.0746178
  23.3857191  61.1257152  13.1496540  22.8131158  61.7447339  12.6967012
  23.9589984  61.6756514  13.6836462  29.4532580  50.3715792  25.3343089
  30.4050003  50.4713890  25.3555313  29.2836031  49.5794061  25.8441173
  27.4746960  47.4571375  25.5202490  26.8796892  47.7376388  24.8248978
  27.1896657  47.9465276  26.2919231  26.6054450  61.4094302  14.2805122
  27.5385124  61.3439864  14.4837998  26.5177663  62.2450569  13.8219655
  29.2342467  60.7260173  11.2409070  29.1556099  60.3920036  12.1344828
  30.0552134  61.2181940  11.2400542  31.9320658  53.5921912  24.4485388
  31.8996978  52.6537913  24.6345072  32.5421282  53.6705949  23.7151213
  23.7703989  52.4617965  10.4912592  24.7163094  52.3324173  10.5601011
  23.3918234  51.7232627  10.9682021  32.0815147  50.3832955  24.4943672
  31.5654195  49.5991412  24.3073600  32.9655095  50.0551672  24.6590191
  29.7425874  44.1273971  20.4539484  29.5450695  43.8189059  21.3382816
  30.3525579  44.8535610  20.5837414  37.7497208  54.6537919  23.5891425
  38.4800597  54.3923207  24.1499129  37.1404154  53.9166641  23.6293493
  35.8312505  52.7945781  24.1865876  35.1045669  52.6601746  23.5782368
  35.4159792  53.1022610  24.9922594  23.6542682  56.5135711  31.9513249
  24.5745691  56.6914310  32.1453296  23.6192265  55.5691756  31.7992949
  21.9546906  50.3867941  10.4267478  21.0478362  50.0901054  10.5030191
  22.2322887  50.0897759   9.5601764  12.8724847  51.7074305  20.8766524
  12.5527631  50.8539613  20.5840898  12.3258275  51.9222883  21.6324491
  16.6504754  54.4236746  24.5936031  16.8690764  55.3553853  24.6124064
  17.0630528  54.0644720  25.3790834  23.5708972  44.9304831  16.5811719
  22.7609700  44.5851916  16.9566965  24.2593389  44.6212375  17.1699331
  25.4999520  44.0082878  18.2036016  26.0530559  44.4278331  18.8626039
  25.7369607  43.0818626  18.2458972  21.5232620  49.9969951  33.9838780
  21.4229346  50.9464308  33.9150871  21.3054162  49.6688190  33.1114850
  12.7413107  55.3277216  22.8459646  12.0476578  54.9131169  22.3329600
  13.4886098  55.3697753  22.2493065  28.8778327  46.1183403  17.7114680
  28.2976996  46.7768207  17.3292732  28.6114260  45.2960747  17.3002097
  27.3281894  45.5188461  19.9136000  27.8281672  45.6304995  19.1050319
  27.9717502  45.2149513  20.5536809  21.3863890  53.4267090  32.8003841
  20.9030971  54.2267450  33.0067730  21.4724829  53.4375035  31.8471285
  14.6549849  55.2595470  20.7225661  14.6320537  55.3583157  19.7707544
  14.9650486  56.1060621  21.0442827  17.3137227  57.3171625  24.8372275
  18.2680481  57.2855567  24.7702207  17.1149751  56.8562249  25.6522501
  17.9036609  55.8872741  27.4043073  18.7229498  56.3816820  27.4277910
  18.1773417  54.9704709  27.3760640  27.6603205  48.2783493  16.7671028
  26.7729060  48.5633144  16.5491223  28.0757194  48.1177257  15.9198305
  31.0117742  48.3030014  20.4825367  31.7878132  48.7926467  20.7549984
  30.2865876  48.7288068  20.9397237  33.4490300  49.0157633  21.5399308
  34.0434791  48.7753369  20.8292616  33.5216884  48.2964764  22.1672844
  15.6687456  62.8591244  21.8542473  15.5341924  62.0991645  21.2880471
  15.2519518  63.5832144  21.3871262  26.8046419  58.0428168  10.8619048
  27.5082269  58.2478170  11.4776704  26.0809068  58.6104930  11.1268132
  27.6344229  53.7938029  16.9821318  27.5779431  54.2506581  16.1428951
  28.1872572  53.0328714  16.8044161  31.4449035  49.5827761  17.8071438
  31.1885969  49.1824397  18.6379646  30.8201903  50.2971555  17.6821577
  35.7561373  52.3223834  20.3142729  35.1960931  52.3917024  21.0874291
  35.1504876  52.1464819  19.5942225  18.8256582  63.7560561  22.0660916
  18.7088966  64.7005994  21.9639606  18.0049028  63.4534123  22.4546715
  28.7133116  58.4810697  12.9117508  29.5478720  58.0491896  12.7294983
  28.5517459  58.3092711  13.8394403  28.3679008  54.9842810  14.2773848
  28.3127812  54.8187082  13.3362292  27.7425064  55.6918843  14.4336037
  13.1571523  50.2210875  28.1035270  13.8030387  49.7109829  28.5922495
  12.9488675  50.9579556  28.6778695  25.6824916  57.2891722  33.6027410
  26.5516075  57.4632375  33.2414045  25.2031667  58.1086139  33.4803140
  21.6775134  44.4850919  13.8559166  21.6653804  45.4292759  14.0127437
  22.5698556  44.3021065  13.5618627  19.8511096  64.4088823  25.2816844
  20.7538343  64.4412434  25.5983339  19.6248466  63.4789274  25.2963180
  21.6064698  63.1619810  21.9426923  20.6560329  63.1621671  21.8291295
  21.9097184  62.4152544  21.4262957  25.4927253  41.0793696  18.1105103
  24.7259649  40.5252183  18.2561785  25.9037958  41.1515565  18.9719254
  17.4969014  47.3678492  32.2010284  18.3600476  47.0115297  32.4113609
  16.9234425  47.0292387  32.8885688  37.3417391  68.9980348  23.0072685
  37.9795801  68.8787096  22.3036025  37.2238234  69.9461192  23.0660637
  34.1507098  68.9507776  22.9434210  33.8125609  68.8348841  22.0554745
  35.0196866  68.5498941  22.9235216  30.0093913  70.8043253  18.9331101
  29.4458778  70.7133190  18.1647388  29.8946308  69.9843157  19.4133593
  34.6326881  70.1042628  28.9020415  34.6215521  69.7095426  28.0300919
  34.7947520  69.3708701  29.4954187  27.5558345  72.2994444  21.7715321
  28.3479637  71.9585269  21.3561620  27.7954995  72.4089419  22.6917474
  35.5893472  74.4714220  14.2445566  34.9381452  75.0568301  13.8579579
  36.3837835  75.0020415  14.3040603  29.5149099  71.5603358  14.6432700
  30.2879975  71.0132345  14.5045576  29.8674498  72.4247607  14.8547161
  31.3534142  72.8879740  27.8499599  31.0624008  73.7925371  27.7346265
  31.9891126  72.9296268  28.5643669  32.2790349  70.2656588  24.4400959
  32.8753921  70.0412611  23.7257922  32.3365320  69.5241334  25.0426407
  31.8515377  67.7196024  12.2751150  32.1040898  67.1977545  11.5134613
  30.9139936  67.5562169  12.3777833  36.8958660  66.7231802  20.0825893
  37.6821749  66.3051225  19.7316310  37.1597364  67.6277894  20.2507541
  37.0668737  72.1604652  14.7814550  36.4314570  72.2339279  15.4935454
  36.7366144  72.7498251  14.1033629  42.2967087  66.6607035  20.9858872
  43.0292259  66.0906252  21.2196701  41.5406443  66.2728636  21.4265377
  31.5711666  69.6224130  14.4775525  31.4547924  68.9469033  15.1456609
  31.6813926  69.1356504  13.6607678  33.9143207  69.0834277  18.1822214
  33.5501414  68.5564898  18.8935135  34.7710323  68.6932746  18.0088699
  39.8192507  60.3728609  25.4453480  39.4875832  61.2424020  25.2214695
  39.2238121  60.0564893  26.1247511  33.5548694  64.1124177  13.1783562
  33.7223096  64.9804413  13.5454034  33.3645863  64.2751458  12.2544852
  36.3124027  72.5741155  24.8449393  36.0124750  73.4766194  24.7365200
  35.9675086  72.3073339  25.6970546  29.7636508  69.0254952  20.8786097
  28.8387005  68.8931166  21.0863789  30.0120922  69.8049171  21.3756040
  39.7121171  65.0923696  22.5246830  38.8038048  65.0239104  22.2305591
  39.6608766  65.5695641  23.3528656  33.5337915  66.5681834  14.1630229
  33.4137540  67.0138885  15.0015710  32.8390503  66.9167152  13.6043767
  27.1245319  68.6688226  21.7129886  27.2537701  68.9222705  22.6269298
  26.4442771  69.2615934  21.3934541  31.2944807  79.3385476  17.8120361
  31.2168836  80.2893301  17.8908841  30.6906450  78.9931348  18.4695287
  33.7862036  66.5113341  30.4681727  33.0095370  67.0707261  30.4584592
  34.4252599  66.9970124  30.9896598  41.5782817  63.2940134  24.3024704
  40.9357197  63.5872667  23.6564499  41.0737746  63.1793054  25.1077901
  39.2322981  67.0403307  14.9910563  40.1440837  67.2730694  14.8158261
  38.7232628  67.6240351  14.4285642  32.0408409  69.3198795  30.0299694
  32.7823093  69.8583839  29.7534518  31.3345394  69.9465083  30.1871246
  37.5163748  71.4627935  28.6271856  37.9247104  71.0210346  27.8826488
  36.7941010  70.8880563  28.8806049  33.8694818  66.4000542  26.0005413
  34.7156014  66.8239955  26.1440062  33.8093456  65.7434166  26.6943976
  37.8392563  72.0229126  22.3824145  37.2101425  72.1874840  21.6800213
  37.4518225  72.4370735  23.1535109  41.7181795  72.9583563  19.7368509
  41.0332833  73.3382465  19.1865542  41.8025644  73.5678890  20.4700456
  37.0194264  64.0604910  27.6586587  36.7755196  64.8146971  27.1220862
  37.2954194  64.4390258  28.4933834  38.9732727  70.6043523  26.3363852
  39.1849622  71.2475282  25.6598233  38.9262475  69.7705839  25.8685782
  36.5758955  63.2161343  23.2400424  35.7143434  63.5142597  23.5317162
  36.6021390  63.4331742  22.3081457  33.3920525  71.7603534  19.6474230
  33.8558870  72.0391237  18.8578852  33.1277323  70.8586978  19.4647321
  30.2844606  71.3075015  22.5853993  30.8545963  71.7362284  21.9471478
  30.8752718  71.0257600  23.2838179  32.3289411  67.8826686  16.4563795
  33.0313454  68.3347730  16.9237721  31.9970039  67.2410505  17.0843688
  30.7769772  66.4738443  30.8315004  30.1468433  67.1554724  31.0650401
  30.6705860  66.3621524  29.8868143  26.0714745  66.1410239  21.7580929
  25.2813799  66.3967767  21.2821039  26.5625992  66.9558577  21.8632969
  40.0878554  73.4815478  24.5086209  40.9095998  73.0795665  24.2268891
  40.0840957  73.3783712  25.4602325  28.0229490  66.5054818  18.7164405
  27.2260654  66.6173512  19.2347901  27.7955082  66.8441470  17.8505296
  33.8535158  73.0299521  26.6646920  33.9179590  73.4919928  27.5005092
  33.1446082  72.3996886  26.7929230  24.3552448  66.3940729  24.1895919
  24.6060486  67.2787739  24.4553495  24.8911996  66.2145331  23.4171011
  48.1784548  69.8254226  20.8571181  47.4248256  69.2561624  20.7015185
  48.3132089  69.7916891  21.8041816  33.5683176  74.6967629  16.5325900
  33.4328850  75.5419164  16.9610748  34.1092988  74.8986906  15.7691834
  30.0550515  60.7759209  33.1940255  29.6617461  60.2225407  33.8687900
  30.8716656  61.0869787  33.5846773  27.0212573  72.2143067  17.1053825
  27.5337094  73.0086317  17.2559390  27.6735286  71.5169357  17.0387427
  28.8307458  75.3308823  19.1876579  29.0074086  76.2526788  18.9997562
  29.6264291  75.0167242  19.6170958  32.9718476  62.1917088  30.7860512
  33.7128190  62.7924241  30.7064975  33.2036399  61.4494725  30.2278555
  28.1159814  67.3773455  29.0638742  28.0013329  66.4758712  29.3645841
  27.2604332  67.6237152  28.7123558  35.1951652  75.3191195  30.6626242
  34.7515506  74.5327574  30.3447147  35.8568866  75.5070346  29.9970133
  29.9538773  76.8486997  25.1886921  30.5046198  76.7204060  24.4163915
  29.1150249  77.1481886  24.8381814  37.2932890  75.5993995  28.6907644
  37.2751365  76.4202876  28.1987913  38.2152810  75.4748070  28.9157785
  33.7505944  73.1138125  29.5331152  34.2834281  72.3526413  29.3030460
  33.2220025  72.8211776  30.2755306  36.9175639  58.2198191  25.0624794
  36.5739909  59.1099832  24.9863904  37.2854602  58.0299848  24.1994379
  24.9861490  70.5431721  17.8813396  25.8236712  70.9528729  17.6647104
  25.1639757  69.6031163  17.8513590  36.8825922  68.2106802  13.5697229
  36.3672545  68.9811406  13.8085616  36.6103230  67.5371938  14.1930290
  34.4673033  63.0556502  18.6282467  33.6114629  62.6663353  18.4488106
  34.8799985  63.1348463  17.7682253  35.9972180  60.5902846  23.0274027
  35.4936975  60.5532981  22.2141832  36.2902786  61.4995588  23.0870684
  32.2415065  60.6741575  22.0340209  33.1068062  60.4784384  21.6746098
  32.3092574  60.4451927  22.9609565  41.8560196  70.9639156  15.5050402
  41.0789639  70.6250316  15.0605564  42.5351677  70.9691780  14.8305367
  36.6712225  66.0833894  15.3957010  36.3662361  66.3980043  16.2467153
  37.6242667  66.1615314  15.4384343  35.1158657  72.2424117  17.0449964
  34.5880018  71.5076877  16.7323201  34.6146160  73.0198793  16.7989932
  40.0951503  70.4373138  22.1617010  39.4375177  71.1272399  22.2497139
  40.8991902  70.8269570  22.5050997  29.8477384  62.9043783  19.4056576
  30.4221136  62.6818965  18.6729768  30.4348367  62.9732478  20.1585177
  38.9056962  68.7917510  20.2120952  39.4188843  69.4247502  20.7142662
  39.5558186  68.1918706  19.8464312  30.1746972  64.9348244  13.4252461
  29.3384284  65.2722931  13.7461736  30.0351741  64.7997224  12.4879598
  32.1500052  59.7785032  18.1331645  31.4964465  59.4634049  17.5088260
  32.1080526  59.1560773  18.8591468  33.2611257  70.0604327  10.0484937
  32.3538319  69.8293581  10.2476086  33.7582289  69.2641947  10.2358919
  36.1679336  78.7701835  12.9681623  35.4941035  79.0733531  13.5766581
  36.5545158  79.5730915  12.6187080  35.3837793  66.2666966  22.4579293
  34.4660354  66.4881913  22.3000981  35.7997936  66.3413276  21.5991000
  36.1672840  67.6658382  17.5881973  36.9144659  68.1779779  17.2789095
  36.4364430  67.3442434  18.4486366  34.4399490  70.1616922  14.5708927
  33.5310710  69.8775955  14.6681397  34.4694574  70.5816001  13.7112234
  39.6718758  73.7723512  18.3400095  39.2181085  72.9314422  18.3965285
  39.0412725  74.4084910  18.6774875  38.6151677  64.7015498  19.5700762
  37.8774434  64.1892884  19.9011005  38.8678451  64.2615879  18.7584039
  38.1151697  75.6100008  19.2749913  38.4074672  76.1705066  18.5562278
  38.6250318  75.9028569  20.0303072  38.7163305  57.4791750  20.1642531
  39.0222182  56.6189113  19.8768446  39.4415910  58.0709370  19.9641525
  25.0087661  67.8822436  18.5524129  24.8112061  67.2891797  17.8275196
  24.4534325  67.5774647  19.2700068  32.9884385  67.7745543  20.6718722
  33.0432994  66.8219379  20.5961199  32.1775587  67.9304982  21.1560021
  34.1375578  71.7025666  11.9097006  33.6995008  70.9861525  11.4502643
  34.8786019  71.9301781  11.3482097  30.9276744  66.3922603  18.4309101
  30.1144610  66.6916773  18.8374293  31.4235739  65.9978291  19.1483584
  33.0785322  76.3880360  20.3643366  33.0361501  76.6141206  19.4351898
  33.9948021  76.1543734  20.5129167  36.5250956  66.8564427  27.2623995
  36.8800344  67.0835900  28.1218461  37.1723087  67.1882804  26.6401251
  42.2548693  69.9782863  17.9673324  42.1166592  70.1684459  17.0394513
  41.8984912  70.7402246  18.4241375  30.4190819  63.9640958  24.0470336
  31.0590199  63.8229717  23.3493300  29.5868350  63.6775472  23.6708938
  42.2818073  72.0459390  22.9784596  42.7154579  71.9534679  23.8267650
  42.9949653  72.0216890  22.3404612  31.1951123  73.2643389  20.1605329
  31.9891722  72.7693709  19.9587904  30.4842815  72.7361252  19.7973034
  36.0145968  75.6461484  24.5117696  36.0682990  76.2152420  25.2795412
  35.1460749  75.8163369  24.1471734  27.5033887  67.4086470  16.2365081
  26.5731475  67.3470926  16.4535044  27.5991359  66.8862423  15.4401723
  27.4219436  63.9341283  18.8243323  27.6826253  64.8486616  18.7152484
  28.2436608  63.4665726  18.9739936  28.8944361  65.3479040  25.9942148
  29.5667414  65.1396402  25.3454797  28.0674147  65.1501126  25.5547380
  43.1433622  72.0883091  25.5117481  43.3369512  72.9928901  25.7576756
  43.0434240  71.6290510  26.3456066  34.7969933  61.9740981  28.0107809
  34.1497848  62.6730931  27.9172285  35.5670948  62.4077125  28.3784057
  38.2048731  72.2389833  31.0858362  38.0534237  72.0100385  30.1688445
  38.1953410  73.1960435  31.0989707  34.9734067  69.8121746  26.0704628
  35.9026127  69.9632906  25.8973596  34.5525097  69.9005767  25.2153275
  33.7722399  73.8372411  23.8403166  33.6333485  73.4691195  24.7129104
  32.9836995  74.3520050  23.6687124  34.3670551  78.9381507  15.1828702
  34.5422307  78.4669550  15.9974325  33.6803339  79.5647273  15.4109963
  35.3227614  73.2154013  21.2292004  34.9877447  73.1754783  22.1249654
  34.8231560  72.5498729  20.7562414  29.2971858  68.6221643  26.7544585
  29.1591656  67.8901882  27.3556124  30.2076782  68.5330543  26.4728773
  38.2586806  70.5610048  11.5029063  37.6415977  69.8356876  11.4062116
  37.7903294  71.3219408  11.1596138  31.9254159  68.3341603  26.2428264
  32.6353777  67.6934795  26.2014883  31.8823467  68.5854497  27.1654445
  39.9140938  75.2708956  29.1634844  39.8553484  74.5868176  28.4965427
  40.3160456  76.0127946  28.7115470  30.6383093  65.3206820  28.0623904
  30.1020450  64.8697559  28.7145500  30.0499801  65.4552729  27.3194368
  28.9331636  82.0870870  21.9568563  29.1728235  82.7189394  22.6347581
  28.0900833  81.7358910  22.2433922  30.0485352  64.7795472  10.6250368
  29.1714818  64.6584273  10.2612614  30.5243105  63.9881550  10.3729256
  39.9158345  73.2348540  27.3948823  39.0285124  72.8974462  27.5175222
  40.4856896  72.5031571  27.6317589  21.5687492  69.5672632  20.7191875
  22.2558532  69.2534362  20.1312890  21.4135621  70.4713996  20.4459126
  26.3722214  64.4562828  25.1476898  26.2880403  63.8488498  24.4127308
  25.5504920  64.9471846  25.1486395  33.4459498  77.8949992  24.3610067
  33.3729670  78.7004964  24.8729371  33.0036891  78.0941958  23.5358088
  33.2349278  77.1321762  17.8712888  32.4516800  77.6743442  17.9651113
  33.9342023  77.6495742  18.2707129  36.5445928  62.9416392  20.5147093
  37.0414627  62.1886354  20.1948164  35.7732909  62.9780708  19.9490303
  44.3975685  68.6456757  22.1565385  44.3865562  69.5281473  21.7859318
  43.5293065  68.2928308  21.9619922  35.9058182  77.7936826  26.5168225
  36.6186154  78.4284291  26.4444127  35.4148210  77.8900692  25.7008227
  37.6275709  71.6988079  18.0885517  36.6931987  71.8189541  17.9190221
  37.8052377  70.7960546  17.8245527  33.1280897  65.0833775  20.2418778
  32.7578684  64.5304815  20.9299684  33.6239989  64.4791908  19.6893778
  41.0148260  67.5405398  18.6235551  41.4808712  68.3733390  18.5495854
  41.4655760  67.0750380  19.3280809  30.9570095  75.5431270  27.3373796
  31.6579555  76.1767753  27.4903190  30.4865210  75.8846001  26.5769435
  39.0824491  73.8849219  15.6221703  39.3584335  73.7705814  16.5315577
  38.2128990  73.4866704  15.5833876  38.9864923  59.9085985  22.6626452
  38.0728003  60.1390212  22.8308659  39.4158024  59.9924429  23.5140485
  38.7571381  68.0975877  25.1626346  38.1042831  68.3451785  24.5078799
  39.1351761  67.2840015  24.8288824  35.7178555  78.1335570  19.2654517
  35.9000950  77.3157226  19.7282269  36.5411541  78.3503263  18.8279407
  36.0520721  77.0603755  16.5269565  36.5808487  76.5496210  15.9139727
  36.3148940  76.7446286  17.3915098  34.8058954  68.8395688  31.6492383
  34.1299591  68.7389818  32.3194759  35.6286588  68.6834902  32.1128381
  26.5537813  75.0767625  24.2704899  27.1391250  74.3311313  24.4032803
  26.3562652  75.3871581  25.1541563  29.4076469  78.1118872  19.2867341
  28.7386844  78.5965000  18.8031381  29.2689338  78.3588093  20.2010720
  21.1455468  67.6473225  22.9909342  21.1839568  67.1136816  23.7846460
  20.6395761  67.1208430  22.3720319  33.5481737  80.1462616  25.8849999
  34.1000045  80.3094237  26.6499085  33.8887931  80.7367053  25.2130024
  28.5246230  62.4937765  26.4871884  28.5887557  63.3552596  26.0749282
  28.4613351  61.8811767  25.7544243  27.9998503  64.5660898  30.1344918
  28.6270542  64.1837975  30.7482443  27.1426422  64.3475100  30.5000611
  38.3992611  74.9723873  31.7398654  38.9432515  75.5853831  31.2453609
  37.8179456  75.5303452  32.2565667  24.7764046  66.3737327  16.0663273
  25.0717487  65.4648006  16.0130327  23.8752081  66.3525067  15.7444276
  36.6850124  78.0944591  22.8713682  36.5601264  77.2934331  22.3624627
  37.3429216  78.5890785  22.3827652  28.3058293  64.4493324  22.0490822
  27.5844878  65.0629291  21.9098295  29.0951548  64.9851089  21.9707468
  38.7485033  75.8953611  24.4993232  37.8015368  75.7758962  24.4271558
  39.0967806  75.0076109  24.5819493  31.1084606  61.7847750  28.3231474
  31.6319008  62.0310047  29.0857783  30.8896939  62.6167785  27.9034611
  26.5051887  64.0551425  16.1902598  26.1764593  63.1748804  16.0077704
  26.8591258  63.9999093  17.0778988  35.7531466  75.6906327  20.6997584
  35.6056429  74.7623035  20.8805154  36.5784960  75.7126418  20.2154659
  29.6193710  64.3424395  16.5578076  29.9589783  64.8710316  15.8356684
  30.0665831  64.6804801  17.3336643  39.3565588  76.5134886  21.7862457
  40.2812135  76.3077748  21.6486908  39.1880891  76.2651287  22.6951798
  32.3137151  62.7261445  26.0081144  31.9733972  61.9269258  26.4101824
  31.6076157  63.0263156  25.4357977  32.9653623  59.8110758  24.4608467
  33.7879692  59.3371236  24.3387357  33.2091687  60.5901241  24.9607153
  31.6061858  62.8399016  14.7571369  32.3270220  63.2180269  14.2535086
  30.9827162  63.5587893  14.8606347  35.7492980  63.5444165  15.6929701
  35.9656595  64.4268803  15.3918529  35.2687048  63.1530379  14.9635343
  30.4892202  66.5029878  22.2700446  30.3436783  66.8170181  23.1624727
  30.0117405  67.1214779  21.7171344  32.3488585  63.4932426  22.3181335
  32.3350153  62.5973520  21.9813633  33.0661013  63.5003090  22.9519621
  34.2014715  63.9269767  24.3634463  33.9432493  64.8486837  24.3618793
  33.6699756  63.5300201  25.0534927  39.1460904  77.0320554  17.1424548
  39.3197782  76.4666976  16.3898401  39.6389795  77.8321449  16.9604038
  24.9637864  69.0435223  25.2088107  24.4191332  69.8195031  25.3408381
  25.8417214  69.3906027  25.0507228  31.7525481  62.3746807  17.5868905
  31.8741392  61.4463453  17.7859793  31.4627523  62.3885493  16.6747221
  34.6216671  60.0601717  20.7235625  34.6438368  60.1241050  19.7687605
  35.0384730  59.2206226  20.9176131  45.0000295  69.7956977  18.7614848
  45.4431441  69.0464302  18.3633971  44.1226806  69.7867113  18.3788580
  40.1336077  76.3487318  14.2421446  40.8286981  76.9694011  14.4608761
  40.4759227  75.4982669  14.5173824  25.7503886  68.1705119  28.1018264
  25.0085622  68.3187754  28.6882894  25.4296630  68.4313385  27.2385013
  42.0327500  73.7987024  15.7708777  42.5578824  74.1374296  15.0458097
  41.9449852  72.8634039  15.5871912  33.6947548  77.7121097  27.8998654
  34.0034675  77.4670244  28.7721353  34.4923030  77.9167736  27.4117524
  33.7168161  79.8659007  20.1304030  33.2773151  79.3735386  20.8236887
  34.4676277  79.3231975  19.8896106  26.1960499  76.0570548  20.1328658
  27.0218519  75.7574320  19.7527302  25.8454551  75.2878170  20.5818447
  31.1642033  75.4097016  22.2026332  30.5422042  74.7467721  21.9028560
  31.8346900  75.4358148  21.5199980  24.3969105  73.9756874  21.0917592
  23.5601013  73.5479049  20.9101593  24.3692750  74.1689318  22.0288383
  31.2366560  63.8878804  31.7958838  31.2854716  64.7640927  31.4136608
  31.7789074  63.3456197  31.2230481  41.7221406  74.4319927  31.0759975
  40.9316950  74.4144066  30.5364475  41.4854760  74.9708221  31.8309012
  41.8419281  71.2812394  28.3892704  41.8917286  71.1162401  29.3308226
  41.7333204  70.4139653  27.9990584  30.7255540  73.9600939  15.6784793
  30.8743660  74.6436404  15.0251465  31.5321983  73.9406029  16.1934248
  39.1323043  67.2643322  29.7052010  40.0332906  67.1249786  29.4136008
  39.2071018  67.4297776  30.6450188  33.4665849  64.6410176  28.5505197
  32.5969158  64.9343742  28.2787785  33.7025329  65.2250621  29.2712460
  43.3437478  73.7009335  28.6334725  43.0522286  74.0639316  29.4698186
  42.7309609  72.9876343  28.4548057  44.5433160  71.2662215  21.1537295
  45.3780051  71.7052019  21.3174856  44.6792289  70.7900868  20.3345541
  41.5924666  68.8241950  27.1014783  42.0678788  69.0169596  26.2933635
  40.6690231  68.8801136  26.8558167  28.4808173  69.9866117  16.6845861
  28.2354214  69.0828447  16.8826072  28.6504087  69.9883267  15.7425339
  36.1704882  60.8589793  26.0670617  36.6886826  61.5950820  25.7417106
  35.8160015  61.1653787  26.9017376  27.7503820  65.7194475  14.1832023
  27.0573065  65.7938830  13.5272059  27.5055572  64.9554818  14.7053540
  36.4217477  57.2790076  21.5871514  36.7019230  56.6113265  22.2131940
  37.2068084  57.4719171  21.0746178  34.2250945  76.4549070  13.1496540
  33.6524912  77.0739257  12.6967012  34.7983739  77.0048431  13.6836462
  40.2926335  65.7007710  25.3343089  41.2443758  65.8005808  25.3555313
  40.1229785  64.9085978  25.8441173  38.3140714  62.7863293  25.5202490
  37.7190647  63.0668306  24.8248978  38.0290411  63.2757194  26.2919231
  37.4448205  76.7386220  14.2805122  38.3778878  76.6731782  14.4837998
  37.3571418  77.5742487  13.8219655  40.0736222  76.0552090  11.2409070
  39.9949853  75.7211954  12.1344828  40.8945888  76.5473858  11.2400542
  42.7714413  68.9213830  24.4485388  42.7390733  67.9829830  24.6345072
  43.3815036  68.9997866  23.7151213  34.6097744  67.7909883  10.4912592
  35.5556848  67.6616091  10.5601011  34.2311989  67.0524544  10.9682021
  42.9208901  65.7124873  24.4943672  42.4047950  64.9283330  24.3073600
  43.8048850  65.3843590  24.6590191  40.5819628  59.4565889  20.4539484
  40.3844449  59.1480977  21.3382816  41.1919334  60.1827527  20.5837414
  48.5890963  69.9829836  23.5891425  49.3194351  69.7215125  24.1499129
  47.9797908  69.2458558  23.6293493  46.6706260  68.1237699  24.1865876
  45.9439423  67.9893664  23.5782368  46.2553547  68.4314528  24.9922594
  34.4936436  71.8427629  31.9513249  35.4139446  72.0206228  32.1453296
  34.4586019  70.8983674  31.7992949  32.7940661  65.7159859  10.4267478
  31.8872116  65.4192972  10.5030191  33.0716642  65.4189677   9.5601764
  23.7118601  67.0366222  20.8766524  23.3921385  66.1831531  20.5840898
  23.1652029  67.2514800  21.6324491  27.4898509  69.7528663  24.5936031
  27.7084518  70.6845771  24.6124064  27.9024282  69.3936638  25.3790834
  34.4102726  60.2596749  16.5811719  33.6003455  59.9143834  16.9566965
  35.0987143  59.9504292  17.1699331  36.3393275  59.3374795  18.2036016
  36.8924313  59.7570249  18.8626039  36.5763361  58.4110544  18.2458972
  32.3626374  65.3261869  33.9838780  32.2623101  66.2756226  33.9150871
  32.1447916  64.9980108  33.1114850  31.5639445  62.5746794  10.5679457
  32.4258609  62.9001692  10.8275274  31.7489790  61.7878290  10.0552523
  23.5806861  70.6569134  22.8459646  22.8870333  70.2423087  22.3329600
  24.3279852  70.6989670  22.2493065  39.7172082  61.4475321  17.7114680
  39.1370751  62.1060125  17.3292732  39.4508015  60.6252665  17.3002097
  38.1675648  60.8480378  19.9136000  38.6675427  60.9596913  19.1050319
  38.8111256  60.5441431  20.5536809  32.2257644  68.7559008  32.8003841
  31.7424726  69.5559368  33.0067730  32.3118583  68.7666953  31.8471285
  25.4943604  70.5887388  20.7225661  25.4714292  70.6875075  19.7707544
  25.8044240  71.4352538  21.0442827  28.1530982  72.6463543  24.8372275
  29.1074235  72.6147485  24.7702207  27.9543505  72.1854166  25.6522501
  28.7430364  71.2164659  27.4043073  29.5623253  71.7108737  27.4277910
  29.0167171  70.2996627  27.3760640  38.4996960  63.6075411  16.7671028
  37.6122815  63.8925062  16.5491223  38.9150949  63.4469174  15.9198305
  41.8511496  63.6321932  20.4825367  42.6271886  64.1218384  20.7549984
  41.1259630  64.0579986  20.9397237  44.2884055  64.3449551  21.5399308
  44.8828545  64.1045287  20.8292616  44.3610638  63.6256682  22.1672844
  26.5081210  78.1883162  21.8542473  26.3735678  77.4283563  21.2880471
  26.0913273  78.9124062  21.3871262  37.6440173  73.3720086  10.8619048
  38.3476023  73.5770088  11.4776704  36.9202822  73.9396848  11.1268132
  38.4737984  69.1229947  16.9821318  38.4173185  69.5798498  16.1428951
  39.0266326  68.3620631  16.8044161  42.2842790  64.9119679  17.8071438
  42.0279724  64.5116314  18.6379646  41.6595658  65.6263473  17.6821577
  46.5955127  67.6515752  20.3142729  46.0354685  67.7208941  21.0874291
  45.9898631  67.4756737  19.5942225  29.6650336  79.0852479  22.0660916
  29.5482720  80.0297912  21.9639606  28.8442782  78.7826041  22.4546715
  39.5526871  73.8102615  12.9117508  40.3872475  73.3783813  12.7294983
  39.3911214  73.6384629  13.8394403  39.2072763  70.3134728  14.2773848
  39.1521567  70.1479000  13.3362292  38.5818818  71.0210761  14.4336037
  23.9965278  65.5502793  28.1035270  24.6424142  65.0401746  28.5922495
  23.7882429  66.2871474  28.6778695  36.5218670  72.6183640  33.6027410
  37.3909830  72.7924292  33.2414045  36.0425422  73.4378057  33.4803140
  32.5168888  59.8142837  13.8559166  32.5047558  60.7584677  14.0127437
  33.4092310  59.6312983  13.5618627  30.6904850  79.7380741  25.2816844
  31.5932097  79.7704351  25.5983339  30.4642220  78.8081192  25.2963180
  32.4458452  78.4911728  21.9426923  31.4954083  78.4913589  21.8291295
  32.7490938  77.7444462  21.4262957  36.3321008  56.4085614  18.1105103
  35.5653404  55.8544100  18.2561785  36.7431713  56.4807483  18.9719254
  28.3362769  62.6970410  32.2010284  29.1994230  62.3407214  32.4113609
  27.7628180  62.3584304  32.8885688  48.1811146  84.3272266  23.0072685
  48.8189556  84.2079013  22.3036025  48.0631989  85.2753110  23.0660637
  44.9900852  84.2799694  22.9434210  44.6519364  84.1640759  22.0554745
  45.8590620  83.8790859  22.9235216  40.8487668  86.1335170  18.9331101
  40.2852533  86.0425107  18.1647388  40.7340063  85.3135075  19.4133593
  45.4720635  85.4334546  28.9020415  45.4609276  85.0387344  28.0300919
  45.6341275  84.7000618  29.4954187  38.3952100  87.6286362  21.7715321
  39.1873392  87.2877187  21.3561620  38.6348750  87.7381337  22.6917474
  46.4287227  89.8006138  14.2445566  45.7775206  90.3860219  13.8579579
  47.2231589  90.3312333  14.3040603  40.3542854  86.8895275  14.6432700
  41.1273730  86.3424262  14.5045576  40.7068253  87.7539525  14.8547161
  42.1927896  88.2171658  27.8499599  41.9017762  89.1217288  27.7346265
  42.8284881  88.2588185  28.5643669  43.1184103  85.5948506  24.4400959
  43.7147675  85.3704528  23.7257922  43.1759075  84.8533252  25.0426407
  42.6909132  83.0487941  12.2751150  42.9434652  82.5269463  11.5134613
  41.7533691  82.8854087  12.3777833  47.7352414  82.0523720  20.0825893
  48.5215504  81.6343143  19.7316310  47.9991119  82.9569812  20.2507541
  47.9062492  87.4896570  14.7814550  47.2708325  87.5631197  15.4935454
  47.5759898  88.0790169  14.1033629  53.1360841  81.9898953  20.9858872
  53.8686013  81.4198170  21.2196701  52.3800197  81.6020553  21.4265377
  42.4105420  84.9516047  14.4775525  42.2941678  84.2760951  15.1456609
  42.5207680  84.4648421  13.6607678  44.7536961  84.4126194  18.1822214
  44.3895168  83.8856815  18.8935135  45.6104077  84.0224664  18.0088699
  50.6586262  75.7020527  25.4453480  50.3269587  76.5715938  25.2214695
  50.0631875  75.3856811  26.1247511  44.3942448  79.4416094  13.1783562
  44.5616851  80.3096331  13.5454034  44.2039617  79.6043376  12.2544852
  47.1517781  87.9033073  24.8449393  46.8518504  88.8058112  24.7365200
  46.8068841  87.6365256  25.6970546  40.6030263  84.3546870  20.8786097
  39.6780759  84.2223084  21.0863789  40.8514676  85.1341089  21.3756040
  50.5514925  80.4215613  22.5246830  49.6431802  80.3531022  22.2305591
  50.5002521  80.8987558  23.3528656  44.3731669  81.8973752  14.1630229
  44.2531294  82.3430802  15.0015710  43.6784257  82.2459069  13.6043767
  37.9639074  83.9980143  21.7129886  38.0931455  84.2514622  22.6269298
  37.2836525  84.5907851  21.3934541  42.1338561  94.6677393  17.8120361
  42.0562591  95.6185219  17.8908841  41.5300205  94.3223266  18.4695287
  44.6255791  81.8405259  30.4681727  43.8489125  82.3999179  30.4584592
  45.2646354  82.3262042  30.9896598  52.4176572  78.6232052  24.3024704
  51.7750952  78.9164585  23.6564499  51.9131500  78.5084972  25.1077901
  50.0716735  82.3695225  14.9910563  50.9834591  82.6022612  14.8158261
  49.5626382  82.9532269  14.4285642  42.8802163  84.6490712  30.0299694
  43.6216848  85.1875756  29.7534518  42.1739149  85.2757001  30.1871246
  48.3557503  86.7919853  28.6271856  48.7640859  86.3502263  27.8826488
  47.6334764  86.2172480  28.8806049  44.7088573  81.7292459  26.0005413
  45.5549768  82.1531873  26.1440062  44.6487211  81.0726084  26.6943976
  48.6786317  87.3521043  22.3824145  48.0495180  87.5166757  21.6800213
  48.2911980  87.7662653  23.1535109  52.5575549  88.2875481  19.7368509
  51.8726588  88.6674383  19.1865542  52.6419399  88.8970808  20.4700456
  47.8588018  79.3896828  27.6586587  47.6148950  80.1438888  27.1220862
  48.1347949  79.7682175  28.4933834  49.8126481  85.9335440  26.3363852
  50.0243376  86.5767200  25.6598233  49.7656229  85.0997757  25.8685782
  47.4152710  78.5453261  23.2400424  46.5537189  78.8434514  23.5317162
  47.4415145  78.7623660  22.3081457  44.2314279  87.0895451  19.6474230
  44.6952625  87.3683154  18.8578852  43.9671077  86.1878896  19.4647321
  41.1238360  86.6366933  22.5853993  41.6939717  87.0654201  21.9471478
  41.7146472  86.3549518  23.2838179  43.1683165  83.2118604  16.4563795
  43.8707209  83.6639647  16.9237721  42.8363794  82.5702423  17.0843688
  41.6163527  81.8030360  30.8315004  40.9862188  82.4846641  31.0650401
  41.5099615  81.6913442  29.8868143  36.9108499  81.4702156  21.7580929
  36.1207553  81.7259685  21.2821039  37.4019747  82.2850494  21.8632969
  50.9272309  88.8107396  24.5086209  51.7489753  88.4087583  24.2268891
  50.9234712  88.7075630  25.4602325  38.8623245  81.8346736  18.7164405
  38.0654408  81.9465430  19.2347901  38.6348837  82.1733388  17.8505296
  44.6928912  88.3591439  26.6646920  44.7573345  88.8211846  27.5005092
  43.9839836  87.7288804  26.7929230  35.1946202  81.7232647  24.1895919
  35.4454241  82.6079657  24.4553495  35.7305751  81.5437248  23.4171011
  59.0178302  85.1546144  20.8571181  58.2642010  84.5853542  20.7015185
  59.1525843  85.1208809  21.8041816  44.4076930  90.0259546  16.5325900
  44.2722605  90.8711082  16.9610748  44.9486743  90.2278824  15.7691834
  40.8944270  76.1051126  33.1940255  40.5011215  75.5517325  33.8687900
  41.7110410  76.4161705  33.5846773  37.8606327  87.5434984  17.1053825
  38.3730848  88.3378235  17.2559390  38.5129040  86.8461275  17.0387427
  39.6701212  90.6600741  19.1876579  39.8467840  91.5818705  18.9997562
  40.4658046  90.3459160  19.6170958  43.8112231  77.5209005  30.7860512
  44.5521944  78.1216158  30.7064975  44.0430153  76.7786643  30.2278555
  38.9553569  82.7065373  29.0638742  38.8407084  81.8050630  29.3645841
  38.0998086  82.9529069  28.7123558  46.0345406  90.6483113  30.6626242
  45.5909261  89.8619491  30.3447147  46.6962620  90.8362263  29.9970133
  40.7932528  92.1778914  25.1886921  41.3439953  92.0495978  24.4163915
  39.9544004  92.4773804  24.8381814  48.1326644  90.9285913  28.6907644
  48.1145120  91.7494794  28.1987913  49.0546565  90.8039988  28.9157785
  44.5899699  88.4430042  29.5331152  45.1228035  87.6818330  29.3030460
  44.0613780  88.1503694  30.2755306  47.7569394  73.5490108  25.0624794
  47.4133663  74.4391750  24.9863904  48.1248356  73.3591766  24.1994379
  35.8255244  85.8723639  17.8813396  36.6630466  86.2820647  17.6647104
  36.0033512  84.9323081  17.8513590  47.7219676  83.5398719  13.5697229
  47.2066300  84.3103324  13.8085616  47.4496985  82.8663856  14.1930290
  45.3066787  78.3848420  18.6282467  44.4508384  77.9955271  18.4488106
  45.7193739  78.4640381  17.7682253  46.8365934  75.9194763  23.0274027
  46.3330730  75.8824899  22.2141832  47.1296541  76.8287506  23.0870684
  43.0808820  76.0033493  22.0340209  43.9461817  75.8076302  21.6746098
  43.1486329  75.7743845  22.9609565  52.6953950  86.2931074  15.5050402
  51.9183393  85.9542234  15.0605564  53.3745431  86.2983697  14.8305367
  47.5105979  81.4125811  15.3957010  47.2056115  81.7271961  16.2467153
  48.4636422  81.4907231  15.4384343  45.9552411  87.5716035  17.0449964
  45.4273773  86.8368794  16.7323201  45.4539914  88.3490711  16.7989932
  50.9345257  85.7665055  22.1617010  50.2768932  86.4564317  22.2497139
  51.7385657  86.1561487  22.5050997  40.6871139  78.2335701  19.4056576
  41.2614891  78.0110883  18.6729768  41.2742121  78.3024396  20.1585177
  49.7450716  84.1209428  20.2120952  50.2582598  84.7539420  20.7142662
  50.3951940  83.5210623  19.8464312  41.0140726  80.2640162  13.4252461
  40.1778038  80.6014849  13.7461736  40.8745496  80.1289142  12.4879598
  42.9893807  75.1076950  18.1331645  42.3358219  74.7925967  17.5088260
  42.9474281  74.4852690  18.8591468  44.1005012  85.3896245  10.0484937
  43.1932073  85.1585499  10.2476086  44.5976044  84.5933864  10.2358919
  47.0073090  94.0993752  12.9681623  46.3334789  94.4025449  13.5766581
  47.3938912  94.9022833  12.6187080  46.2231547  81.5958884  22.4579293
  45.3054108  81.8173831  22.3000981  46.6391691  81.6705194  21.5991000
  47.0066595  82.9950299  17.5881973  47.7538414  83.5071696  17.2789095
  47.2758184  82.6734352  18.4486366  45.2793245  85.4908840  14.5708927
  44.3704464  85.2067873  14.6681397  45.3088329  85.9107918  13.7112234
  50.5112512  89.1015429  18.3400095  50.0574839  88.2606339  18.3965285
  49.8806479  89.7376828  18.6774875  49.4545432  80.0307415  19.5700762
  48.7168189  79.5184802  19.9011005  49.7072205  79.5907797  18.7584039
  48.9545452  90.9391926  19.2749913  49.2468426  91.4996983  18.5562278
  49.4644072  91.2320487  20.0303072  49.5557059  72.8083667  20.1642531
  49.8615936  71.9481031  19.8768446  50.2809664  73.4001288  19.9641525
  35.8481415  83.2114354  18.5524129  35.6505815  82.6183715  17.8275196
  35.2928079  82.9066564  19.2700068  43.8278139  83.1037461  20.6718722
  43.8826749  82.1511297  20.5961199  43.0169341  83.2596900  21.1560021
  44.9769333  87.0317584  11.9097006  44.5388763  86.3153443  11.4502643
  45.7179774  87.2593698  11.3482097  41.7670499  81.7214520  18.4309101
  40.9538364  82.0208691  18.8374293  42.2629493  81.3270209  19.1483584
  43.9179077  91.7172277  20.3643366  43.8755256  91.9433124  19.4351898
  44.8341776  91.4835652  20.5129167  47.3644711  82.1856345  27.2623995
  47.7194098  82.4127818  28.1218461  48.0116842  82.5174722  26.6401251
  53.0942448  85.3074781  17.9673324  52.9560346  85.4976377  17.0394513
  52.7378666  86.0694163  18.4241375  41.2584574  79.2932876  24.0470336
  41.8983953  79.1521635  23.3493300  40.4262104  79.0067389  23.6708938
  53.1211827  87.3751308  22.9784596  53.5548334  87.2826597  23.8267650
  53.8343408  87.3508808  22.3404612  42.0344878  88.5935306  20.1605329
  42.8285476  88.0985626  19.9587904  41.3236570  88.0653169  19.7973034
  46.8539722  90.9753402  24.5117696  46.9076744  91.5444338  25.2795412
  45.9854503  91.1455287  24.1471734  38.3427641  82.7378388  16.2365081
  37.4125229  82.6762843  16.4535044  38.4385113  82.2154341  15.4401723
  38.2613190  79.2633201  18.8243323  38.5220007  80.1778534  18.7152484
  39.0830362  78.7957643  18.9739936  39.7338115  80.6770958  25.9942148
  40.4061169  80.4688320  25.3454797  38.9067902  80.4793044  25.5547380
  53.9827377  87.4175008  25.5117481  54.1763267  88.3220819  25.7576756
  53.8827995  86.9582427  26.3456066  45.6363687  77.3032899  28.0107809
  44.9891602  78.0022849  27.9172285  46.4064703  77.7369043  28.3784057
  49.0442485  87.5681751  31.0858362  48.8927992  87.3392303  30.1688445
  49.0347165  88.5252352  31.0989707  45.8127822  85.1413664  26.0704628
  46.7419882  85.2924823  25.8973596  45.3918852  85.2297685  25.2153275
  44.6116154  89.1664328  23.8403166  44.4727239  88.7983113  24.7129104
  43.8230750  89.6811968  23.6687124  45.2064306  94.2673425  15.1828702
  45.3816061  93.7961468  15.9974325  44.5197094  94.8939191  15.4109963
  46.1621369  88.5445931  21.2292004  45.8271201  88.5046701  22.1249654
  45.6625314  87.8790647  20.7562414  40.1365613  83.9513561  26.7544585
  39.9985411  83.2193800  27.3556124  41.0470536  83.8622461  26.4728773
  49.0980560  85.8901965  11.5029063  48.4809731  85.1648793  11.4062116
  48.6297049  86.6511326  11.1596138  42.7647913  83.6633520  26.2428264
  43.4747532  83.0226712  26.2014883  42.7217222  83.9146415  27.1654445
  50.7534692  90.6000874  29.1634844  50.6947238  89.9160094  28.4965427
  51.1554210  91.3419864  28.7115470  41.4776847  80.6498738  28.0623904
  40.9414204  80.1989477  28.7145500  40.8893556  80.7844647  27.3194368
  39.7725391  97.4162787  21.9568563  40.0121989  98.0481312  22.6347581
  38.9294587  97.0650827  22.2433922  40.8879106  80.1087390  10.6250368
  40.0108573  79.9876190  10.2612614  41.3636859  79.3173468  10.3729256
  50.7552099  88.5640458  27.3948823  49.8678878  88.2266379  27.5175222
  51.3250650  87.8323489  27.6317589  32.4081246  84.8964549  20.7191875
  33.0952286  84.5826279  20.1312890  32.2529375  85.8005914  20.4459126
  37.2115969  79.7854746  25.1476898  37.1274157  79.1780415  24.4127308
  36.3898675  80.2763764  25.1486395  44.2853253  93.2241910  24.3610067
  44.2123424  94.0296881  24.8729371  43.8430646  93.4233876  23.5358088
  44.0743032  92.4613680  17.8712888  43.2910554  93.0035360  17.9651113
  44.7735778  92.9787660  18.2707129  47.3839682  78.2708309  20.5147093
  47.8808382  77.5178272  20.1948164  46.6126664  78.3072626  19.9490303
  55.2369440  83.9748675  22.1565385  55.2259316  84.8573390  21.7859318
  54.3686819  83.6220226  21.9619922  46.7451936  93.1228744  26.5168225
  47.4579908  93.7576209  26.4444127  46.2541965  93.2192610  25.7008227
  48.4669463  87.0279997  18.0885517  47.5325742  87.1481459  17.9190221
  48.6446132  86.1252463  17.8245527  43.9674651  80.4125692  20.2418778
  43.5972439  79.8596733  20.9299684  44.4633744  79.8083826  19.6893778
  51.8542014  82.8697316  18.6235551  52.3202467  83.7025307  18.5495854
  52.3049515  82.4042297  19.3280809  41.7963850  90.8723187  27.3373796
  42.4973309  91.5059670  27.4903190  41.3258965  91.2137919  26.5769435
  49.9218246  89.2141137  15.6221703  50.1978089  89.0997732  16.5315577
  49.0522744  88.8158622  15.5833876  49.8258677  75.2377903  22.6626452
  48.9121757  75.4682130  22.8308659  50.2551779  75.3216347  23.5140485
  49.5965136  83.4267795  25.1626346  48.9436586  83.6743702  24.5078799
  49.9745516  82.6131933  24.8288824  46.5572310  93.4627488  19.2654517
  46.7394704  92.6449144  19.7282269  47.3805296  93.6795180  18.8279407
  46.8914475  92.3895673  16.5269565  47.4202242  91.8788128  15.9139727
  47.1542695  92.0738203  17.3915098  45.6452709  84.1687606  31.6492383
  44.9693346  84.0681735  32.3194759  46.4680343  84.0126820  32.1128381
  37.3931568  90.4059542  24.2704899  37.9785005  89.6603230  24.4032803
  37.1956406  90.7163499  25.1541563  40.2470223  93.4410790  19.2867341
  39.5780598  93.9256917  18.8031381  40.1083093  93.6880010  20.2010720
  31.9849223  82.9765143  22.9909342  32.0233322  82.4428733  23.7846460
  31.4789515  82.4500348  22.3720319  44.3875492  95.4754533  25.8849999
  44.9393800  95.6386155  26.6499085  44.7281685  96.0658971  25.2130024
  39.3639985  77.8229683  26.4871884  39.4281311  78.6844514  26.0749282
  39.3007105  77.2103685  25.7544243  38.8392257  79.8952816  30.1344918
  39.4664296  79.5129893  30.7482443  37.9820176  79.6767018  30.5000611
  49.2386366  90.3015791  31.7398654  49.7826270  90.9145749  31.2453609
  48.6573211  90.8595369  32.2565667  35.6157800  81.7029245  16.0663273
  35.9111241  80.7939923  16.0130327  34.7145836  81.6816984  15.7444276
  47.5243879  93.4236509  22.8713682  47.3995018  92.6226249  22.3624627
  48.1822970  93.9182702  22.3827652  39.1452047  79.7785241  22.0490822
  38.4238633  80.3921209  21.9098295  39.9345303  80.3143006  21.9707468
  49.5878787  91.2245529  24.4993232  48.6409123  91.1050880  24.4271558
  49.9361560  90.3368027  24.5819493  41.9478361  77.1139668  28.3231474
  42.4712762  77.3601964  29.0857783  41.7290694  77.9459703  27.9034611
  37.3445642  79.3843342  16.1902598  37.0158348  78.5040721  16.0077704
  37.6985012  79.3291011  17.0778988  46.5925221  91.0198245  20.6997584
  46.4450183  90.0914953  20.8805154  47.4178714  91.0418336  20.2154659
  40.4587465  79.6716312  16.5578076  40.7983537  80.2002233  15.8356684
  40.9059585  80.0096718  17.3336643  50.1959342  91.8426804  21.7862457
  51.1205890  91.6369665  21.6486908  50.0274646  91.5943205  22.6951798
  43.1530906  78.0553363  26.0081144  42.8127726  77.2561176  26.4101824
  42.4469912  78.3555074  25.4357977  43.8047378  75.1402675  24.4608467
  44.6273447  74.6663154  24.3387357  44.0485441  75.9193159  24.9607153
  42.4455612  78.1690934  14.7571369  43.1663975  78.5472187  14.2535086
  41.8220916  78.8879811  14.8606347  46.5886735  78.8736083  15.6929701
  46.8050349  79.7560721  15.3918529  46.1080802  78.4822296  14.9635343
  41.3285956  81.8321796  22.2700446  41.1830537  82.1462099  23.1624727
  40.8511160  82.4506696  21.7171344  43.1882339  78.8224344  22.3181335
  43.1743908  77.9265437  21.9813633  43.9054767  78.8295008  22.9519621
  45.0408470  79.2561684  24.3634463  44.7826248  80.1778755  24.3618793
  44.5093510  78.8592119  25.0534927  49.9854659  92.3612471  17.1424548
  50.1591536  91.7958894  16.3898401  50.4783550  93.1613366  16.9604038
  35.8031618  84.3727140  25.2088107  35.2585087  85.1486948  25.3408381
  36.6810968  84.7197945  25.0507228  42.5919235  77.7038724  17.5868905
  42.7135146  76.7755370  17.7859793  42.3021277  77.7177410  16.6747221
  45.4610425  75.3893635  20.7235625  45.4832122  75.4532968  19.7687605
  45.8778484  74.5498143  20.9176131  55.8394050  85.1248894  18.7614848
  56.2825196  84.3756219  18.3633971  54.9620560  85.1159031  18.3788580
  50.9729831  91.6779236  14.2421446  51.6680736  92.2985928  14.4608761
  51.3152981  90.8274587  14.5173824  36.5897640  83.4997037  28.1018264
  35.8479376  83.6479672  28.6882894  36.2690385  83.7605302  27.2385013
  52.8721254  89.1278941  15.7708777  53.3972578  89.4666214  15.0458097
  52.7843607  88.1925957  15.5871912  44.5341303  93.0413015  27.8998654
  44.8428429  92.7962162  28.7721353  45.3316785  93.2459653  27.4117524
  44.5561915  95.1950925  20.1304030  44.1166905  94.7027303  20.8236887
  45.3070032  94.6523892  19.8896106  37.0354254  91.3862465  20.1328658
  37.8612274  91.0866237  19.7527302  36.6848306  90.6170088  20.5818447
  42.0035787  90.7388934  22.2026332  41.3815796  90.0759639  21.9028560
  42.6740654  90.7650066  21.5199980  35.2362859  89.3048792  21.0917592
  34.3994767  88.8770966  20.9101593  35.2086504  89.4981235  22.0288383
  42.0760315  79.2170722  31.7958838  42.1248470  80.0932844  31.4136608
  42.6182829  78.6748115  31.2230481  52.5615160  89.7611845  31.0759975
  51.7710704  89.7435984  30.5364475  52.3248515  90.3000139  31.8309012
  52.6813035  86.6104311  28.3892704  52.7311040  86.4454319  29.3308226
  52.5726959  85.7431570  27.9990584  41.5649294  89.2892857  15.6784793
  41.7137414  89.9728321  15.0251465  42.3715738  89.2697947  16.1934248
  49.9716798  82.5935239  29.7052010  50.8726661  82.4541704  29.4136008
  50.0464772  82.7589694  30.6450188  44.3059603  79.9702094  28.5505197
  43.4362912  80.2635660  28.2787785  44.5419083  80.5542539  29.2712460
  54.1831232  89.0301253  28.6334725  53.8916041  89.3931233  29.4698186
  53.5703363  88.3168261  28.4548057  55.3826915  86.5954133  21.1537295
  56.2173806  87.0343937  21.3174856  55.5186043  86.1192786  20.3345541
  52.4318420  84.1533867  27.1014783  52.9072542  84.3461514  26.2933635
  51.5083986  84.2093053  26.8558167  39.3201927  85.3158035  16.6845861
  39.0747969  84.4120365  16.8826072  39.4897842  85.3175185  15.7425339
  47.0098637  76.1881711  26.0670617  47.5280581  76.9242738  25.7417106
  46.6553770  76.4945704  26.9017376  38.5897575  81.0486392  14.1832023
  37.8966820  81.1230747  13.5272059  38.3449326  80.2846736  14.7053540
  47.2611231  72.6081994  21.5871514  47.5412985  71.9405183  22.2131940
  48.0461838  72.8011089  21.0746178  45.0644700  91.7840987  13.1496540
  44.4918667  92.4031175  12.6967012  45.6377493  92.3340349  13.6836462
  51.1320089  81.0299628  25.3343089  52.0837512  81.1297725  25.3555313
  50.9623540  80.2377896  25.8441173  49.1534469  78.1155211  25.5202490
  48.5584401  78.3960223  24.8248978  48.8684166  78.6049112  26.2919231
  48.2841959  92.0678138  14.2805122  49.2172633  92.0023699  14.4837998
  48.1965172  92.9034404  13.8219655  50.9129976  91.3844008  11.2409070
  50.8343608  91.0503872  12.1344828  51.7339643  91.8765776  11.2400542
  53.6108167  84.2505747  24.4485388  53.5784487  83.3121748  24.6345072
  54.2208791  84.3289784  23.7151213  45.4491498  83.1201800  10.4912592
  46.3950603  82.9908008  10.5601011  45.0705743  82.3816462  10.9682021
  53.7602656  81.0416791  24.4943672  53.2441704  80.2575247  24.3073600
  54.6442604  80.7135507  24.6590191  51.4213383  74.7857806  20.4539484
  51.2238204  74.4772894  21.3382816  52.0313088  75.5119445  20.5837414
  59.4284717  85.3121754  23.5891425  60.1588106  85.0507042  24.1499129
  58.8191663  84.5750476  23.6293493  57.5100014  83.4529617  24.1865876
  56.7833178  83.3185582  23.5782368  57.0947301  83.7606445  24.9922594
  45.3330191  87.1719546  31.9513249  46.2533200  87.3498145  32.1453296
  45.2979774  86.2275592  31.7992949  43.6334415  81.0451777  10.4267478
  42.7265871  80.7484889  10.5030191  43.9110396  80.7481595   9.5601764
  34.5512356  82.3658140  20.8766524  34.2315140  81.5123448  20.5840898
  34.0045784  82.5806718  21.6324491  38.3292263  85.0820581  24.5936031
  38.5478273  86.0137689  24.6124064  38.7418037  84.7228555  25.3790834
  45.2496481  75.5888666  16.5811719  44.4397209  75.2435751  16.9566965
  45.9380898  75.2796210  17.1699331  47.1787029  74.6666713  18.2036016
  47.7318068  75.0862167  18.8626039  47.4157116  73.7402461  18.2458972
  43.2020128  80.6553787  33.9838780  43.1016855  81.6048144  33.9150871
  42.9841671  80.3272026  33.1114850  42.4033200  77.9038712  10.5679457
  43.2652364  78.2293610  10.8275274  42.5883544  77.1170208  10.0552523
  34.4200616  85.9861051  22.8459646  33.7264087  85.5715004  22.3329600
  35.1673607  86.0281588  22.2493065  50.5565836  76.7767238  17.7114680
  49.9764505  77.4352042  17.3292732  50.2901769  75.9544583  17.3002097
  49.0069403  76.1772296  19.9136000  49.5069181  76.2888830  19.1050319
  49.6505011  75.8733349  20.5536809  43.0651399  84.0850926  32.8003841
  42.5818480  84.8851286  33.0067730  43.1512338  84.0958870  31.8471285
  36.3337358  85.9179305  20.7225661  36.3108046  86.0166993  19.7707544
  36.6437995  86.7644456  21.0442827  38.9924736  87.9755460  24.8372275
  39.9467990  87.9439403  24.7702207  38.7937260  87.5146084  25.6522501
  39.5824118  86.5456576  27.4043073  40.4017007  87.0400655  27.4277910
  39.8560926  85.6288544  27.3760640  49.3390714  78.9367329  16.7671028
  48.4516569  79.2216979  16.5491223  49.7544703  78.7761092  15.9198305
  52.6905250  78.9613850  20.4825367  53.4665641  79.4510302  20.7549984
  51.9653385  79.3871904  20.9397237  55.1277809  79.6741469  21.5399308
  55.7222300  79.4337205  20.8292616  55.2004393  78.9548599  22.1672844
  37.3474965  93.5175080  21.8542473  37.2129433  92.7575481  21.2880471
  36.9307027  94.2415980  21.3871262  48.4833928  88.7012003  10.8619048
  49.1869778  88.9062006  11.4776704  47.7596577  89.2688765  11.1268132
  49.3131738  84.4521865  16.9821318  49.2566940  84.9090416  16.1428951
  49.8660081  83.6912549  16.8044161  53.1236544  80.2411596  17.8071438
  52.8673478  79.8408232  18.6379646  52.4989412  80.9555390  17.6821577
  57.4348882  82.9807670  20.3142729  56.8748440  83.0500859  21.0874291
  56.8292385  82.8048654  19.5942225  40.5044091  94.4144397  22.0660916
  40.3876475  95.3589829  21.9639606  39.6836537  94.1117958  22.4546715
  50.3920625  89.1394533  12.9117508  51.2266229  88.7075731  12.7294983
  50.2304968  88.9676546  13.8394403  50.0466517  85.6426646  14.2773848
  49.9915321  85.4770917  13.3362292  49.4212573  86.3502679  14.4336037
  34.8359032  80.8794710  28.1035270  35.4817896  80.3693664  28.5922495
  34.6276184  81.6163392  28.6778695  47.3612425  87.9475558  33.6027410
  48.2303584  88.1216210  33.2414045  46.8819176  88.7669975  33.4803140
  43.3562643  75.1434755  13.8559166  43.3441313  76.0876595  14.0127437
  44.2486065  74.9604900  13.5618627  41.5298605  95.0672659  25.2816844
  42.4325852  95.0996269  25.5983339  41.3035975  94.1373110  25.2963180
  43.2852207  93.8203645  21.9426923  42.3347838  93.8205507  21.8291295
  43.5884693  93.0736380  21.4262957  47.1714762  71.7377531  18.1105103
  46.4047158  71.1836018  18.2561785  47.5825467  71.8099400  18.9719254
  39.1756523  78.0262327  32.2010284  40.0387985  77.6699132  32.4113609
  38.6021934  77.6876222  32.8885688  59.0204900  99.6564184  23.0072685
  59.6583310  99.5370931  22.3036025  58.9025743 100.6045028  23.0660637
  55.8294607  99.6091612  22.9434210  55.4913118  99.4932676  22.0554745
  56.6984375  99.2082777  22.9235216  51.6881422 101.4627088  18.9331101
  51.1246287 101.3717025  18.1647388  51.5733817 100.6426993  19.4133593
  56.3114390 100.7626463  28.9020415  56.3003030 100.3679262  28.0300919
  56.4735029 100.0292536  29.4954187  49.2345854 102.9578280  21.7715321
  50.0267146 102.6169104  21.3561620  49.4742504 103.0673255  22.6917474
  57.2680981 105.1298056  14.2445566  56.6168961 105.7152136  13.8579579
  58.0625344 105.6604251  14.3040603  51.1936608 102.2187193  14.6432700
  51.9667484 101.6716180  14.5045576  51.5462007 103.0831442  14.8547161
  53.0321651 103.5463575  27.8499599  52.7411517 104.4509206  27.7346265
  53.6678635 103.5880103  28.5643669  53.9577858 100.9240424  24.4400959
  54.5541430 100.6996446  23.7257922  54.0152829 100.1825169  25.0426407
  53.5302886  98.3779859  12.2751150  53.7828407  97.8561380  11.5134613
  52.5927445  98.2146005  12.3777833  58.5746169  97.3815637  20.0825893
  59.3609258  96.9635061  19.7316310  58.8384873  98.2861730  20.2507541
  58.7456246 102.8188488  14.7814550  58.1102079 102.8923114  15.4935454
  58.4153653 103.4082087  14.1033629  63.9754596  97.3190871  20.9858872
  64.7079768  96.7490087  21.2196701  63.2193952  96.9312471  21.4265377
  53.2499175 100.2807965  14.4775525  53.1335433  99.6052868  15.1456609
  53.3601435  99.7940339  13.6607678  55.5930716  99.7418112  18.1822214
  55.2288923  99.2148733  18.8935135  56.4497832  99.3516581  18.0088699
  61.4980016  91.0312445  25.4453480  61.1663341  91.9007856  25.2214695
  60.9025630  90.7148729  26.1247511  55.2336203  94.7708012  13.1783562
  55.4010605  95.6388248  13.5454034  55.0433372  94.9335294  12.2544852
  57.9911536 103.2324991  24.8449393  57.6912259 104.1350030  24.7365200
  57.6462595 102.9657174  25.6970546  51.4424017  99.6838788  20.8786097
  50.5174514  99.5515002  21.0863789  51.6908431 100.4633007  21.3756040
  61.3908680  95.7507531  22.5246830  60.4825557  95.6822939  22.2305591
  61.3396275  96.2279476  23.3528656  55.2125424  97.2265669  14.1630229
  55.0925049  97.6722720  15.0015710  54.5178012  97.5750987  13.6043767
  48.8032828  99.3272061  21.7129886  48.9325210  99.5806540  22.6269298
  48.1230280  99.9199769  21.3934541  52.9732316 109.9969311  17.8120361
  52.8956345 110.9477136  17.8908841  52.3693959 109.6515184  18.4695287
  55.4649545  97.1697177  30.4681727  54.6882879  97.7291097  30.4584592
  56.1040108  97.6553960  30.9896598  63.2570326  93.9523969  24.3024704
  62.6144706  94.2456503  23.6564499  62.7525255  93.8376890  25.1077901
  60.9110490  97.6987143  14.9910563  61.8228346  97.9314529  14.8158261
  60.4020137  98.2824187  14.4285642  53.7195918  99.9782630  30.0299694
  54.4610602 100.5167674  29.7534518  53.0132903 100.6048919  30.1871246
  59.1951257 102.1211770  28.6271856  59.6034613 101.6794181  27.8826488
  58.4728519 101.5464398  28.8806049  55.5482327  97.0584377  26.0005413
  56.3943523  97.4823791  26.1440062  55.4880965  96.4018001  26.6943976
  59.5180072 102.6812961  22.3824145  58.8888934 102.8458675  21.6800213
  59.1305734 103.0954571  23.1535109  63.3969304 103.6167399  19.7368509
  62.7120342 103.9966300  19.1865542  63.4813153 104.2262725  20.4700456
  58.6981773  94.7188745  27.6586587  58.4542705  95.4730806  27.1220862
  58.9741703  95.0974093  28.4933834  60.6520235 101.2627358  26.3363852
  60.8637131 101.9059118  25.6598233  60.6049984 100.4289674  25.8685782
  58.2546464  93.8745179  23.2400424  57.3930943  94.1726432  23.5317162
  58.2808899  94.0915577  22.3081457  55.0708034 102.4187369  19.6474230
  55.5346379 102.6975072  18.8578852  54.8064832 101.5170814  19.4647321
  51.9632115 101.9658851  22.5853993  52.5333472 102.3946119  21.9471478
  52.5540227 101.6841435  23.2838179  54.0076920  98.5410521  16.4563795
  54.7100963  98.9931565  16.9237721  53.6757548  97.8994340  17.0843688
  52.4557281  97.1322278  30.8315004  51.8255942  97.8138559  31.0650401
  52.3493369  97.0205360  29.8868143  47.7502254  96.7994074  21.7580929
  46.9601308  97.0551603  21.2821039  48.2413501  97.6142412  21.8632969
  61.7666063 104.1399313  24.5086209  62.5883507 103.7379501  24.2268891
  61.7628466 104.0367547  25.4602325  49.7016999  97.1638653  18.7164405
  48.9048163  97.2757348  19.2347901  49.4742591  97.5025306  17.8505296
  55.5322667 103.6883357  26.6646920  55.5967099 104.1503764  27.5005092
  54.8233591 103.0580722  26.7929230  46.0339957  97.0524565  24.1895919
  46.2847995  97.9371574  24.4553495  46.5699505  96.8729166  23.4171011
  69.8572056 100.4838062  20.8571181  69.1035765  99.9145460  20.7015185
  69.9919598 100.4500726  21.8041816  55.2470685 105.3551464  16.5325900
  55.1116359 106.2003000  16.9610748  55.7880497 105.5570742  15.7691834
  51.7338024  91.4343044  33.1940255  51.3404970  90.8809242  33.8687900
  52.5504164  91.7453622  33.5846773  48.7000082 102.8726902  17.1053825
  49.2124602 103.6670152  17.2559390  49.3522795 102.1753193  17.0387427
  50.5094967 105.9892658  19.1876579  50.6861595 106.9110623  18.9997562
  51.3051800 105.6751078  19.6170958  54.6505985  92.8500923  30.7860512
  55.3915699  93.4508076  30.7064975  54.8823908  92.1078561  30.2278555
  49.7947323  98.0357290  29.0638742  49.6800838  97.1342548  29.3645841
  48.9391841  98.2820987  28.7123558  56.8739161 105.9775031  30.6626242
  56.4303015 105.1911409  30.3447147  57.5356374 106.1654181  29.9970133
  51.6326282 107.5070832  25.1886921  52.1833707 107.3787896  24.4163915
  50.7937758 107.8065721  24.8381814  58.9720399 106.2577831  28.6907644
  58.9538874 107.0786712  28.1987913  59.8940319 106.1331906  28.9157785
  55.4293453 103.7721960  29.5331152  55.9621790 103.0110248  29.3030460
  54.9007534 103.4795612  30.2755306  58.5963148  88.8782026  25.0624794
  58.2527417  89.7683668  24.9863904  58.9642111  88.6883684  24.1994379
  46.6648999 101.2015556  17.8813396  47.5024221 101.6112565  17.6647104
  46.8427266 100.2614999  17.8513590  58.5613431  98.8690637  13.5697229
  58.0460054  99.6395242  13.8085616  58.2890739  98.1955773  14.1930290
  56.1460542  93.7140338  18.6282467  55.2902138  93.3247188  18.4488106
  56.5587494  93.7932299  17.7682253  57.6759688  91.2486681  23.0274027
  57.1724484  91.2116816  22.2141832  57.9690295  92.1579424  23.0870684
  53.9202574  91.3325411  22.0340209  54.7855571  91.1368220  21.6746098
  53.9880083  91.1035763  22.9609565  63.5347705 101.6222992  15.5050402
  62.7577148 101.2834151  15.0605564  64.2139186 101.6275615  14.8305367
  58.3499734  96.7417729  15.3957010  58.0449870  97.0563878  16.2467153
  59.3030176  96.8199149  15.4384343  56.7946166 102.9007952  17.0449964
  56.2667527 102.1660712  16.7323201  56.2933669 103.6782629  16.7989932
  61.7739012 101.0956973  22.1617010  61.1162686 101.7856234  22.2497139
  62.5779411 101.4853405  22.5050997  51.5264893  93.5627619  19.4056576
  52.1008645  93.3402800  18.6729768  52.1135876  93.6316313  20.1585177
  60.5844471  99.4501346  20.2120952  61.0976352 100.0831337  20.7142662
  61.2345695  98.8502541  19.8464312  51.8534481  95.5932080  13.4252461
  51.0171793  95.9306766  13.7461736  51.7139250  95.4581060  12.4879598
  53.8287561  90.4368868  18.1331645  53.1751973  90.1217885  17.5088260
  53.7868035  89.8144608  18.8591468  54.9398766 100.7188163  10.0484937
  54.0325828 100.4877416  10.2476086  55.4369798  99.9225782  10.2358919
  57.0625302  96.9250801  22.4579293  56.1447863  97.1465748  22.3000981
  57.4785445  96.9997112  21.5991000  57.8460349  98.3242217  17.5881973
  58.5932168  98.8363614  17.2789095  58.1151939  98.0026270  18.4486366
  56.1186999 100.8200758  14.5708927  55.2098219 100.5359790  14.6681397
  56.1482083 101.2399836  13.7112234  61.3506267 104.4307347  18.3400095
  60.8968594 103.5898257  18.3965285  60.7200234 105.0668745  18.6774875
  60.2939186  95.3599333  19.5700762  59.5561943  94.8476719  19.9011005
  60.5465960  94.9199715  18.7584039  59.7939206 106.2683844  19.2749913
  60.0862180 106.8288901  18.5562278  60.3037827 106.5612405  20.0303072
  60.3950814  88.1375585  20.1642531  60.7009691  87.2772949  19.8768446
  61.1203419  88.7293205  19.9641525  46.6875170  98.5406272  18.5524129
  46.4899570  97.9475632  17.8275196  46.1321834  98.2358482  19.2700068
  54.6671893  98.4329378  20.6718722  54.7220503  97.4803215  20.5961199
  53.8563096  98.5888817  21.1560021  55.8163087 102.3609501  11.9097006
  55.3782517 101.6445360  11.4502643  56.5573528 102.5885616  11.3482097
  52.6064253  97.0506438  18.4309101  51.7932119  97.3500609  18.8374293
  53.1023248  96.6562127  19.1483584  54.7572831 107.0464195  20.3643366
  54.7149010 107.2725041  19.4351898  55.6735530 106.8127569  20.5129167
  58.2038465  97.5148262  27.2623995  58.5587853  97.7419736  28.1218461
  58.8510596  97.8466639  26.6401251  63.9336202 100.6366698  17.9673324
  63.7954101 100.8268294  17.0394513  63.5772421 101.3986081  18.4241375
  52.0978328  94.6224793  24.0470336  52.7377707  94.4813553  23.3493300
  51.2655859  94.3359307  23.6708938  63.9605582 102.7043225  22.9784596
  64.3942088 102.6118514  23.8267650  64.6737162 102.6800726  22.3404612
  52.8738632 103.9227224  20.1605329  53.6679231 103.4277544  19.9587904
  52.1630324 103.3945087  19.7973034  57.6933477 106.3045319  24.5117696
  57.7470499 106.8736256  25.2795412  56.8248258 106.4747204  24.1471734
  49.1821396  98.0670306  16.2365081  48.2518984  98.0054761  16.4535044
  49.2778868  97.5446258  15.4401723  49.1006945  94.5925118  18.8243323
  49.3613762  95.5070452  18.7152484  49.9224117  94.1249561  18.9739936
  50.5731870  96.0062876  25.9942148  51.2454923  95.7980238  25.3454797
  49.7461656  95.8084962  25.5547380  64.8221131 102.7466926  25.5117481
  65.0157021 103.6512736  25.7576756  64.7221749 102.2874345  26.3456066
  56.4757442  92.6324817  28.0107809  55.8285357  93.3314766  27.9172285
  57.2458457  93.0660960  28.3784057  59.8836240 102.8973669  31.0858362
  59.7321746 102.6684220  30.1688445  59.8740919 103.8544270  31.0989707
  56.6521576 100.4705581  26.0704628  57.5813636 100.6216741  25.8973596
  56.2312606 100.5589602  25.2153275  55.4509908 104.4956246  23.8403166
  55.3120994 104.1275030  24.7129104  54.6624504 105.0103885  23.6687124
  56.0458060 109.5965342  15.1828702  56.2209816 109.1253386  15.9974325
  55.3590848 110.2231109  15.4109963  57.0015123 103.8737849  21.2292004
  56.6664956 103.8338619  22.1249654  56.5019069 103.2082564  20.7562414
  50.9759367  99.2805479  26.7544585  50.8379165  98.5485717  27.3556124
  51.8864291  99.1914379  26.4728773  59.9374315 101.2193883  11.5029063
  59.3203486 100.4940711  11.4062116  59.4690803 101.9803243  11.1596138
  53.6041668  98.9925438  26.2428264  54.3141286  98.3518630  26.2014883
  53.5610976  99.2438333  27.1654445  61.5928447 105.9292791  29.1634844
  61.5340993 105.2452011  28.4965427  61.9947965 106.6711781  28.7115470
  52.3170602  95.9790656  28.0623904  51.7807959  95.5281394  28.7145500
  51.7287310  96.1136565  27.3194368  50.6119145 112.7454705  21.9568563
  50.8515744 113.3773229  22.6347581  49.7688342 112.3942745  22.2433922
  51.7272861  95.4379307  10.6250368  50.8502327  95.3168108  10.2612614
  52.2030614  94.6465386  10.3729256  61.5945854 103.8932375  27.3948823
  60.7072633 103.5558297  27.5175222  62.1644405 103.1615406  27.6317589
  43.2475001 100.2256467  20.7191875  43.9346041  99.9118197  20.1312890
  43.0923130 101.1297832  20.4459126  48.0509723  95.1146664  25.1476898
  47.9667912  94.5072333  24.4127308  47.2292429  95.6055682  25.1486395
  55.1247007 108.5533828  24.3610067  55.0517179 109.3588799  24.8729371
  54.6824400 108.7525793  23.5358088  54.9136787 107.7905598  17.8712888
  54.1304309 108.3327278  17.9651113  55.6129532 108.3079577  18.2707129
  58.2233437  93.6000227  20.5147093  58.7202136  92.8470189  20.1948164
  57.4520418  93.6364544  19.9490303  66.0763194  99.3040593  22.1565385
  66.0653071 100.1865308  21.7859318  65.2080574  98.9512143  21.9619922
  57.5845691 108.4520662  26.5168225  58.2973663 109.0868126  26.4444127
  57.0935719 108.5484528  25.7008227  59.3063218 102.3571914  18.0885517
  58.3719496 102.4773377  17.9190221  59.4839886 101.4544381  17.8245527
  54.8068406  95.7417610  20.2418778  54.4366193  95.1888650  20.9299684
  55.3027498  95.1375744  19.6893778  62.6935769  98.1989234  18.6235551
  63.1596221  99.0317225  18.5495854  63.1443269  97.7334215  19.3280809
  52.6357604 106.2015105  27.3373796  53.3367064 106.8351588  27.4903190
  52.1652719 106.5429837  26.5769435  60.7612000 104.5433055  15.6221703
  61.0371844 104.4289649  16.5315577  59.8916499 104.1450540  15.5833876
  60.6652432  90.5669821  22.6626452  59.7515512  90.7974047  22.8308659
  61.0945533  90.6508265  23.5140485  60.4358890  98.7559713  25.1626346
  59.7830340  99.0035620  24.5078799  60.8139270  97.9423851  24.8288824
  57.3966064 108.7919406  19.2654517  57.5788459 107.9741062  19.7282269
  58.2199050 109.0087098  18.8279407  57.7308230 107.7187591  16.5269565
  58.2595996 107.2080045  15.9139727  57.9936449 107.4030121  17.3915098
  56.4846463  99.4979524  31.6492383  55.8087100  99.3973653  32.3194759
  57.3074097  99.3418737  32.1128381  48.2325322 105.7351460  24.2704899
  48.8178759 104.9895148  24.4032803  48.0350161 106.0455417  25.1541563
  51.0863978 108.7702707  19.2867341  50.4174353 109.2548835  18.8031381
  50.9476847 109.0171928  20.2010720  42.8242977  98.3057060  22.9909342
  42.8627077  97.7720651  23.7846460  42.3183270  97.7792266  22.3720319
  55.2269246 110.8046451  25.8849999  55.7787554 110.9678073  26.6499085
  55.5675440 111.3950889  25.2130024  50.2033739  93.1521601  26.4871884
  50.2675066  94.0136432  26.0749282  50.1400860  92.5395602  25.7544243
  49.6786012  95.2244733  30.1344918  50.3058051  94.8421811  30.7482443
  48.8213931  95.0058935  30.5000611  60.0780120 105.6307709  31.7398654
  60.6220024 106.2437667  31.2453609  59.4966965 106.1887287  32.2565667
  46.4551555  97.0321162  16.0663273  46.7504996  96.1231841  16.0130327
  45.5539590  97.0108902  15.7444276  58.3637633 108.7528427  22.8713682
  58.2388773 107.9518166  22.3624627  59.0216725 109.2474620  22.3827652
  49.9845802  95.1077159  22.0490822  49.2632387  95.7213127  21.9098295
  50.7739057  95.6434924  21.9707468  60.4272542 106.5537447  24.4993232
  59.4802877 106.4342798  24.4271558  60.7755315 105.6659945  24.5819493
  52.7872115  92.4431586  28.3231474  53.3106517  92.6893882  29.0857783
  52.5684448  93.2751620  27.9034611  48.1839396  94.7135260  16.1902598
  47.8552102  93.8332639  16.0077704  48.5378767  94.6582929  17.0778988
  57.4318975 106.3490163  20.6997584  57.2843938 105.4206870  20.8805154
  58.2572469 106.3710254  20.2154659  51.2981219  95.0008230  16.5578076
  51.6377292  95.5294151  15.8356684  51.7453340  95.3388636  17.3336643
  61.0353097 107.1718722  21.7862457  61.9599644 106.9661583  21.6486908
  60.8668400 106.9235123  22.6951798  53.9924660  93.3845281  26.0081144
  53.6521481  92.5853094  26.4101824  53.2863666  93.6846991  25.4357977
  54.6441132  90.4694593  24.4608467  55.4667201  89.9955071  24.3387357
  54.8879196  91.2485077  24.9607153  53.2849367  93.4982852  14.7571369
  54.0057729  93.8764104  14.2535086  52.6614671  94.2171728  14.8606347
  57.4280489  94.2028000  15.6929701  57.6444104  95.0852638  15.3918529
  56.9474557  93.8114214  14.9635343  52.1679711  97.1613714  22.2700446
  52.0224291  97.4754017  23.1624727  51.6904914  97.7798614  21.7171344
  54.0276094  94.1516262  22.3181335  54.0137662  93.2557355  21.9813633
  54.7448522  94.1586925  22.9519621  55.8802224  94.5853602  24.3634463
  55.6220002  95.5070673  24.3618793  55.3487265  94.1884036  25.0534927
  60.8248413 107.6904389  17.1424548  60.9985291 107.1250812  16.3898401
  61.3177304 108.4905284  16.9604038  46.6425373  99.7019058  25.2088107
  46.0978841 100.4778866  25.3408381  47.5204723 100.0489863  25.0507228
  53.4312990  93.0330642  17.5868905  53.5528901  92.1047288  17.7859793
  53.1415032  93.0469328  16.6747221  56.3004180  90.7185552  20.7235625
  56.3225877  90.7824886  19.7687605  56.7172239  89.8790061  20.9176131
  66.6787804 100.4540812  18.7614848  67.1218950  99.7048137  18.3633971
  65.8014315 100.4450948  18.3788580  61.8123586 107.0071153  14.2421446
  62.5074490 107.6277846  14.4608761  62.1546736 106.1566505  14.5173824
  47.4291395  98.8288954  28.1018264  46.6873131  98.9771590  28.6882894
  47.1084139  99.0897220  27.2385013  63.7115009 104.4570859  15.7708777
  64.2366333 104.7958132  15.0458097  63.6237361 103.5217874  15.5871912
  55.3735057 108.3704933  27.8998654  55.6822184 108.1254079  28.7721353
  56.1710539 108.5751571  27.4117524  55.3955669 110.5242842  20.1304030
  54.9560660 110.0319221  20.8236887  56.1463786 109.9815810  19.8896106
  47.8748008 106.7154383  20.1328658  48.7006028 106.4158155  19.7527302
  47.5242060 105.9462006  20.5818447  52.8429542 106.0680851  22.2026332
  52.2209551 105.4051556  21.9028560  53.5134409 106.0941983  21.5199980
  46.0756614 104.6340710  21.0917592  45.2388522 104.2062884  20.9101593
  46.0480259 104.8273153  22.0288383  52.9154069  94.5462639  31.7958838
  52.9642225  95.4224762  31.4136608  53.4576583  94.0040032  31.2230481
  63.4008915 105.0903763  31.0759975  62.6104459 105.0727901  30.5364475
  63.1642269 105.6292056  31.8309012  63.5206790 101.9396229  28.3892704
  63.5704795 101.7746236  29.3308226  63.4120713 101.0723488  27.9990584
  52.4043049 104.6184775  15.6784793  52.5531169 105.3020239  15.0251465
  53.2109492 104.5989865  16.1934248  60.8110552  97.9227157  29.7052010
  61.7120415  97.7833622  29.4136008  60.8858527  98.0881612  30.6450188
  55.1453358  95.2994012  28.5505197  54.2756667  95.5927578  28.2787785
  55.3812838  95.8834457  29.2712460  65.0224987 104.3593170  28.6334725
  64.7309795 104.7223151  29.4698186  64.4097118 103.6460179  28.4548057
  66.2220669 101.9246050  21.1537295  67.0567560 102.3635854  21.3174856
  66.3579798 101.4484703  20.3345541  63.2712175  99.4825785  27.1014783
  63.7466297  99.6753431  26.2933635  62.3477740  99.5384971  26.8558167
  50.1595682 100.6449952  16.6845861  49.9141723  99.7412282  16.8826072
  50.3291596 100.6467103  15.7425339  57.8492391  91.5173629  26.0670617
  58.3674335  92.2534656  25.7417106  57.4947524  91.8237622  26.9017376
  49.4291329  96.3778310  14.1832023  48.7360574  96.4522665  13.5272059
  49.1843081  95.6138654  14.7053540  58.1004986  87.9373911  21.5871514
  58.3806739  87.2697100  22.2131940  58.8855593  88.1303007  21.0746178
  55.9038454 107.1132905  13.1496540  55.3312421 107.7323092  12.6967012
  56.4771248 107.6632267  13.6836462  61.9713844  96.3591545  25.3343089
  62.9231267  96.4589643  25.3555313  61.8017294  95.5669814  25.8441173
  59.9928223  93.4447128  25.5202490  59.3978156  93.7252141  24.8248978
  59.7077920  93.9341029  26.2919231  59.1235714 107.3970055  14.2805122
  60.0566387 107.3315617  14.4837998  59.0358927 108.2326322  13.8219655
  64.4501922  99.5797665  24.4485388  64.4178242  98.6413666  24.6345072
  65.0602545  99.6581702  23.7151213  56.2885253  98.4493718  10.4912592
  57.2344357  98.3199926  10.5601011  55.9099498  97.7108380  10.9682021
  64.5996410  96.3708708  24.4943672  64.0835459  95.5867165  24.3073600
  65.4836359  96.0427425  24.6590191  62.2607137  90.1149724  20.4539484
  62.0631958  89.8064812  21.3382816  62.8706843  90.8411363  20.5837414
  70.2678472 100.6413672  23.5891425  70.9981860 100.3798960  24.1499129
  69.6585417  99.9042394  23.6293493  68.3493769  98.7821534  24.1865876
  67.6226932  98.6477499  23.5782368  67.9341056  99.0898363  24.9922594
  56.1723945 102.5011464  31.9513249  57.0926955 102.6790063  32.1453296
  56.1373528 101.5567509  31.7992949  54.4728170  96.3743694  10.4267478
  53.5659625  96.0776807  10.5030191  54.7504151  96.0773512   9.5601764
  45.3906110  97.6950058  20.8766524  45.0708894  96.8415366  20.5840898
  44.8439538  97.9098636  21.6324491  49.1686018 100.4112499  24.5936031
  49.3872027 101.3429606  24.6124064  49.5811791 100.0520473  25.3790834
  56.0890235  90.9180584  16.5811719  55.2790964  90.5727669  16.9566965
  56.7774652  90.6088128  17.1699331  58.0180784  89.9958631  18.2036016
  58.5711822  90.4154084  18.8626039  58.2550870  89.0694379  18.2458972
  54.0413883  95.9845704  33.9838780  53.9410610  96.9340061  33.9150871
  53.8235425  95.6563943  33.1114850  53.2426954  93.2330629  10.5679457
  54.1046118  93.5585528  10.8275274  53.4277299  92.4462125  10.0552523
  45.2594370 101.3152969  22.8459646  44.5657842 100.9006922  22.3329600
  46.0067361 101.3573506  22.2493065  61.3959591  92.1059156  17.7114680
  60.8158260  92.7643960  17.3292732  61.1295524  91.2836501  17.3002097
  59.8463157  91.5064214  19.9136000  60.3462936  91.6180748  19.1050319
  60.4898765  91.2025266  20.5536809  53.9045153  99.4142843  32.8003841
  53.4212235 100.2143203  33.0067730  53.9906092  99.4250788  31.8471285
  47.1731113 101.2471223  20.7225661  47.1501801 101.3458910  19.7707544
  47.4831749 102.0936374  21.0442827  49.8318491 103.3047378  24.8372275
  50.7861744 103.2731320  24.7702207  49.6331014 102.8438002  25.6522501
  50.4217873 101.8748494  27.4043073  51.2410762 102.3692573  27.4277910
  50.6954680 100.9580462  27.3760640  60.1784469  94.2659246  16.7671028
  59.2910324  94.5508897  16.5491223  60.5938458  94.1053010  15.9198305
  63.5299005  94.2905767  20.4825367  64.3059395  94.7802220  20.7549984
  62.8047139  94.7163821  20.9397237  65.9671564  95.0033387  21.5399308
  66.5616054  94.7629122  20.8292616  66.0398147  94.2840517  22.1672844
  48.1868719 108.8466997  21.8542473  48.0523187 108.0867398  21.2880471
  47.7700782 109.5707897  21.3871262  59.3227682 104.0303921  10.8619048
  60.0263532 104.2353923  11.4776704  58.5990331 104.5980683  11.1268132
  60.1525493  99.7813782  16.9821318  60.0960694 100.2382334  16.1428951
  60.7053835  99.0204467  16.8044161  63.9630299  95.5703514  17.8071438
  63.7067233  95.1700150  18.6379646  63.3383167  96.2847308  17.6821577
  68.2742636  98.3099587  20.3142729  67.7142194  98.3792777  21.0874291
  67.6686140  98.1340572  19.5942225  51.3437845 109.7436314  22.0660916
  51.2270229 110.6881747  21.9639606  50.5230291 109.4409876  22.4546715
  61.2314380 104.4686450  12.9117508  62.0659984 104.0367649  12.7294983
  61.0698723 104.2968464  13.8394403  60.8860272 100.9718563  14.2773848
  60.8309076 100.8062835  13.3362292  60.2606327 101.6794596  14.4336037
  45.6752787  96.2086628  28.1035270  46.3211650  95.6985582  28.5922495
  45.4669938  96.9455310  28.6778695  58.2006179 103.2767475  33.6027410
  59.0697339 103.4508128  33.2414045  57.7212931 104.0961892  33.4803140
  54.1956397  90.4726672  13.8559166  54.1835067  91.4168512  14.0127437
  55.0879819  90.2896818  13.5618627  52.3692359 110.3964576  25.2816844
  53.2719606 110.4288187  25.5983339  52.1429729 109.4665027  25.2963180
  54.1245961 109.1495563  21.9426923  53.1741592 109.1497425  21.8291295
  54.4278447 108.4028297  21.4262957  58.0108517  87.0669449  18.1105103
  57.2440913  86.5127936  18.2561785  58.4219222  87.1391318  18.9719254
  50.0150278  93.3554245  32.2010284  50.8781739  92.9991050  32.4113609
  49.4415689  93.0168140  32.8885688  69.8598655 114.9856101  23.0072685
  70.4977065 114.8662849  22.3036025  69.7419498 115.9336945  23.0660637
  66.6688361 114.9383529  22.9434210  66.3306873 114.8224594  22.0554745
  67.5378129 114.5374694  22.9235216  67.1508144 116.0918381  28.9020415
  67.1396785 115.6971179  28.0300919  67.3128784 115.3584454  29.4954187
  60.0739609 118.2870197  21.7715321  60.8660901 117.9461022  21.3561620
  60.3136259 118.3965172  22.6917474  63.8715405 118.8755493  27.8499599
  63.5805271 119.7801124  27.7346265  64.5072390 118.9172021  28.5643669
  64.7971612 116.2532341  24.4400959  65.3935184 116.0288364  23.7257922
  64.8546584 115.5117087  25.0426407  69.4139923 112.7107555  20.0825893
  70.2003013 112.2926978  19.7316310  69.6778628 113.6153647  20.2507541
  72.3373771 106.3604362  25.4453480  72.0057096 107.2299773  25.2214695
  71.7419384 106.0440646  26.1247511  68.8305290 118.5616908  24.8449393
  68.5306013 119.4641947  24.7365200  68.4856350 118.2949092  25.6970546
  62.2817772 115.0130705  20.8786097  61.3568268 114.8806919  21.0863789
  62.5302185 115.7924925  21.3756040  72.2302434 111.0799449  22.5246830
  71.3219311 111.0114857  22.2305591  72.1790030 111.5571394  23.3528656
  59.6426583 114.6563979  21.7129886  59.7718964 114.9098458  22.6269298
  58.9624034 115.2491687  21.3934541  66.3043300 112.4989094  30.4681727
  65.5276634 113.0583014  30.4584592  66.9433863 112.9845877  30.9896598
  74.0964081 109.2815887  24.3024704  73.4538461 109.5748420  23.6564499
  73.5919009 109.1668807  25.1077901  64.5589672 115.3074548  30.0299694
  65.3004357 115.8459592  29.7534518  63.8526658 115.9340836  30.1871246
  70.0345012 117.4503688  28.6271856  70.4428368 117.0086099  27.8826488
  69.3122273 116.8756316  28.8806049  66.3876082 112.3876295  26.0005413
  67.2337277 112.8115708  26.1440062  66.3274720 111.7309919  26.6943976
  69.5375527 110.0480663  27.6586587  69.2936459 110.8022724  27.1220862
  69.8135458 110.4266011  28.4933834  71.4913990 116.5919276  26.3363852
  71.7030885 117.2351035  25.6598233  71.4443738 115.7581592  25.8685782
  69.0940219 109.2037096  23.2400424  68.2324698 109.5018350  23.5317162
  69.1202654 109.4207495  22.3081457  62.8025869 117.2950768  22.5853993
  63.3727226 117.7238037  21.9471478  63.3933981 117.0133353  23.2838179
  63.2951036 112.4614196  30.8315004  62.6649697 113.1430477  31.0650401
  63.1887124 112.3497277  29.8868143  58.5896008 112.1285992  21.7580929
  57.7995062 112.3843520  21.2821039  59.0807256 112.9434330  21.8632969
  60.5410754 112.4930571  18.7164405  59.7441917 112.6049265  19.2347901
  60.3136346 112.8317223  17.8505296  66.3716421 119.0175274  26.6646920
  66.4360854 119.4795681  27.5005092  65.6627345 118.3872639  26.7929230
  56.8733711 112.3816482  24.1895919  57.1241750 113.2663492  24.4553495
  57.4093260 112.2021084  23.4171011  62.5731779 106.7634962  33.1940255
  62.1798724 106.2101160  33.8687900  63.3897919 107.0745540  33.5846773
  65.4899740 108.1792841  30.7860512  66.2309453 108.7799994  30.7064975
  65.7217662 107.4370478  30.2278555  60.6341078 113.3649208  29.0638742
  60.5194593 112.4634465  29.3645841  59.7785595 113.6112905  28.7123558
  67.7132915 121.3066948  30.6626242  67.2696770 120.5203327  30.3447147
  68.3750129 121.4946099  29.9970133  62.4720037 122.8362750  25.1886921
  63.0227462 122.7079813  24.4163915  61.6331512 123.1357639  24.8381814
  69.8114153 121.5869748  28.6907644  69.7932629 122.4078629  28.1987913
  70.7334074 121.4623823  28.9157785  66.2687208 119.1013878  29.5331152
  66.8015544 118.3402166  29.3030460  65.7401289 118.8087529  30.2755306
  69.4356903 104.2073944  25.0624794  69.0921172 105.0975585  24.9863904
  69.8035865 104.0175601  24.1994379  57.5042753 116.5307474  17.8813396
  58.3417975 116.9404482  17.6647104  57.6821021 115.5906916  17.8513590
  66.9854296 109.0432256  18.6282467  66.1295893 108.6539106  18.4488106
  67.3981248 109.1224216  17.7682253  68.5153443 106.5778599  23.0274027
  68.0118239 106.5408734  22.2141832  68.8084050 107.4871342  23.0870684
  64.7596329 106.6617329  22.0340209  65.6249326 106.4660137  21.6746098
  64.8273838 106.4327680  22.9609565  62.3658648 108.8919536  19.4056576
  62.9402400 108.6694718  18.6729768  62.9529630 108.9608231  20.1585177
  64.6681316 105.7660785  18.1331645  64.0145728 105.4509803  17.5088260
  64.6261790 105.1436526  18.8591468  67.9019056 112.2542719  22.4579293
  66.9841617 112.4757666  22.3000981  68.3179200 112.3289029  21.5991000
  71.2344568 103.4667503  20.1642531  71.5403445 102.6064866  19.8768446
  71.9597173 104.0585123  19.9641525  57.5268924 113.8698189  18.5524129
  57.3293324 113.2767550  17.8275196  56.9715588 113.5650400  19.2700068
  65.5065648 113.7621296  20.6718722  65.5614258 112.8095132  20.5961199
  64.6956850 113.9180735  21.1560021  63.4458008 112.3798356  18.4309101
  62.6325873 112.6792526  18.8374293  63.9417002 111.9854044  19.1483584
  69.0432220 112.8440180  27.2623995  69.3981607 113.0711653  28.1218461
  69.6904351 113.1758557  26.6401251  62.9372083 109.9516711  24.0470336
  63.5771462 109.8105470  23.3493300  62.1049613 109.6651225  23.6708938
  68.5327231 121.6337237  24.5117696  68.5864253 122.2028173  25.2795412
  67.6642012 121.8039122  24.1471734  59.9400699 109.9217036  18.8243323
  60.2007516 110.8362369  18.7152484  60.7617871 109.4541479  18.9739936
  61.4125624 111.3354793  25.9942148  62.0848678 111.1272155  25.3454797
  60.5855411 111.1376879  25.5547380  67.3151196 107.9616734  28.0107809
  66.6679111 108.6606684  27.9172285  68.0852212 108.3952878  28.3784057
  70.7229994 118.2265586  31.0858362  70.5715501 117.9976138  30.1688445
  70.7134674 119.1836188  31.0989707  67.4915331 115.7997499  26.0704628
  68.4207391 115.9508659  25.8973596  67.0706361 115.8881520  25.2153275
  66.2903663 119.8248164  23.8403166  66.1514748 119.4566948  24.7129104
  65.5018259 120.3395803  23.6687124  61.8153122 114.6097396  26.7544585
  61.6772920 113.8777635  27.3556124  62.7258045 114.5206296  26.4728773
  64.4435422 114.3217356  26.2428264  65.1535041 113.6810548  26.2014883
  64.4004730 114.5730250  27.1654445  72.4322201 121.2584709  29.1634844
  72.3734747 120.5743929  28.4965427  72.8341719 122.0003699  28.7115470
  63.1564356 111.3082573  28.0623904  62.6201713 110.8573312  28.7145500
  62.5681065 111.4428482  27.3194368  72.4339608 119.2224293  27.3948823
  71.5466387 118.8850215  27.5175222  73.0038159 118.4907324  27.6317589
  54.0868755 115.5548385  20.7191875  54.7739795 115.2410115  20.1312890
  53.9316884 116.4589749  20.4459126  58.8903478 110.4438581  25.1476898
  58.8061666 109.8364251  24.4127308  58.0686184 110.9347600  25.1486395
  69.0627191 108.9292145  20.5147093  69.5595891 108.1762107  20.1948164
  68.2914173 108.9656461  19.9490303  68.4239445 123.7812579  26.5168225
  69.1367417 124.4160044  26.4444127  67.9329474 123.8776445  25.7008227
  65.6462160 111.0709528  20.2418778  65.2759948 110.5180568  20.9299684
  66.1421253 110.4667661  19.6893778  63.4751359 121.5307023  27.3373796
  64.1760818 122.1643506  27.4903190  63.0046474 121.8721754  26.5769435
  71.5046186 105.8961738  22.6626452  70.5909266 106.1265965  22.8308659
  71.9339288 105.9800182  23.5140485  71.2752645 114.0851630  25.1626346
  70.6224095 114.3327538  24.5078799  71.6533025 113.2715768  24.8288824
  67.3240218 114.8271441  31.6492383  66.6480855 114.7265571  32.3194759
  68.1467852 114.6710655  32.1128381  59.0719077 121.0643378  24.2704899
  59.6572514 120.3187066  24.4032803  58.8743915 121.3747334  25.1541563
  53.6636732 113.6348978  22.9909342  53.7020831 113.1012569  23.7846460
  53.1577024 113.1084183  22.3720319  61.0427494 108.4813518  26.4871884
  61.1068820 109.3428349  26.0749282  60.9794614 107.8687520  25.7544243
  60.5179766 110.5536651  30.1344918  61.1451805 110.1713728  30.7482443
  59.6607685 110.3350853  30.5000611  70.9173875 120.9599626  31.7398654
  71.4613779 121.5729584  31.2453609  70.3360720 121.5179205  32.2565667
  57.2945309 112.3613080  16.0663273  57.5898750 111.4523759  16.0130327
  56.3933345 112.3400820  15.7444276  60.8239556 110.4369077  22.0490822
  60.1026142 111.0505044  21.9098295  61.6132812 110.9726842  21.9707468
  63.6265870 107.7723503  28.3231474  64.1500271 108.0185800  29.0857783
  63.4078203 108.6043538  27.9034611  59.0233151 110.0427178  16.1902598
  58.6945857 109.1624557  16.0077704  59.3772521 109.9874846  17.0778988
  62.1374974 110.3300148  16.5578076  62.4771046 110.8586069  15.8356684
  62.5847094 110.6680554  17.3336643  64.8318415 108.7137198  26.0081144
  64.4915235 107.9145011  26.4101824  64.1257421 109.0138909  25.4357977
  65.4834886 105.7986511  24.4608467  66.3060956 105.3246989  24.3387357
  65.7272950 106.5776995  24.9607153  63.0073465 112.4905631  22.2700446
  62.8618046 112.8045934  23.1624727  62.5298669 113.1090532  21.7171344
  64.8669848 109.4808179  22.3181335  64.8531417 108.5849273  21.9813633
  65.5842276 109.4878843  22.9519621  66.7195979 109.9145520  24.3634463
  66.4613757 110.8362590  24.3618793  66.1881019 109.5175954  25.0534927
  57.4819127 115.0310976  25.2088107  56.9372595 115.8070784  25.3408381
  58.3598477 115.3781780  25.0507228  64.2706744 108.3622560  17.5868905
  64.3922655 107.4339206  17.7859793  63.9808786 108.3761246  16.6747221
  67.1397934 106.0477470  20.7235625  67.1619631 106.1116803  19.7687605
  67.5565993 105.2081979  20.9176131  58.2685149 114.1580872  28.1018264
  57.5266885 114.3063507  28.6882894  57.9477894 114.4189138  27.2385013
  66.2128812 123.6996850  27.8998654  66.5215938 123.4545997  28.7721353
  67.0104294 123.9043489  27.4117524  56.9150368 119.9632627  21.0917592
  56.0782276 119.5354802  20.9101593  56.8874013 120.1565071  22.0288383
  63.7547824 109.8754557  31.7958838  63.8035979 110.7516680  31.4136608
  64.2970338 109.3331950  31.2230481  74.2402669 120.4195680  31.0759975
  73.4498213 120.4019819  30.5364475  74.0036024 120.9583974  31.8309012
  74.3600544 117.2688147  28.3892704  74.4098549 117.1038154  29.3308226
  74.2514468 116.4015406  27.9990584  71.6504307 113.2519075  29.7052010
  72.5514169 113.1125540  29.4136008  71.7252281 113.4173530  30.6450188
  65.9847112 110.6285929  28.5505197  65.1150421 110.9219495  28.2787785
  66.2206592 111.2126374  29.2712460  75.8618741 119.6885088  28.6334725
  75.5703549 120.0515069  29.4698186  75.2490872 118.9752096  28.4548057
  74.1105929 114.8117703  27.1014783  74.5860051 115.0045349  26.2933635
  73.1871495 114.8676889  26.8558167  68.6886146 106.8465546  26.0670617
  69.2068090 107.5826573  25.7417106  68.3341279 107.1529540  26.9017376
  68.9398740 103.2665829  21.5871514  69.2200494 102.5989018  22.2131940
  69.7249347 103.4594924  21.0746178  72.8107598 111.6883463  25.3343089
  73.7625021 111.7881561  25.3555313  72.6411049 110.8961731  25.8441173
  70.8321978 108.7739046  25.5202490  70.2371910 109.0544059  24.8248978
  70.5471675 109.2632947  26.2919231  75.2895676 114.9089583  24.4485388
  75.2571996 113.9705583  24.6345072  75.8996300 114.9873619  23.7151213
  75.4390165 111.7000626  24.4943672  74.9229213 110.9159083  24.3073600
  76.3230113 111.3719343  24.6590191  73.1000892 105.4441642  20.4539484
  72.9025713 105.1356730  21.3382816  73.7100597 106.1703280  20.5837414
  67.0117700 117.8303382  31.9513249  67.9320709 118.0081981  32.1453296
  66.9767283 116.8859427  31.7992949  56.2299865 113.0241975  20.8766524
  55.9102649 112.1707284  20.5840898  55.6833293 113.2390553  21.6324491
  60.0079772 115.7404416  24.5936031  60.2265782 116.6721524  24.6124064
  60.4205546 115.3812391  25.3790834  66.9283990 106.2472502  16.5811719
  66.1184718 105.9019587  16.9566965  67.6168407 105.9380045  17.1699331
  68.8574538 105.3250548  18.2036016  69.4105577 105.7446002  18.8626039
  69.0944625 104.3986297  18.2458972  64.8807637 111.3137622  33.9838780
  64.7804364 112.2631979  33.9150871  64.6629180 110.9855861  33.1114850
  56.0988125 116.6444887  22.8459646  55.4051596 116.2298840  22.3329600
  56.8461116 116.6865423  22.2493065  70.6856912 106.8356131  19.9136000
  71.1856690 106.9472666  19.1050319  71.3292520 106.5317184  20.5536809
  64.7438908 114.7434761  32.8003841  64.2605989 115.5435121  33.0067730
  64.8299847 114.7542706  31.8471285  58.0124867 116.5763141  20.7225661
  57.9895555 116.6750828  19.7707544  58.3225504 117.4228291  21.0442827
  60.6712245 118.6339296  24.8372275  61.6255499 118.6023238  24.7702207
  60.4724769 118.1729919  25.6522501  61.2611627 117.2040412  27.4043073
  62.0804516 117.6984490  27.4277910  61.5348435 116.2872380  27.3760640
  74.3692759 109.6197685  20.4825367  75.1453150 110.1094137  20.7549984
  73.6440894 110.0455739  20.9397237  56.5146541 111.5378546  28.1035270
  57.1605405 111.0277500  28.5922495  56.3063692 112.2747227  28.6778695
  69.0399934 118.6059393  33.6027410  69.9091093 118.7800045  33.2414045
  68.5606685 119.4253810  33.4803140  63.2086114 125.7256494  25.2816844
  64.1113361 125.7580104  25.5983339  62.9823484 124.7956945  25.2963180
  68.8502271 102.3961367  18.1105103  68.0834667 101.8419854  18.2561785
  69.2612976 102.4683236  18.9719254  60.8544032 108.6846163  32.2010284
  61.7175494 108.3282967  32.4113609  60.2809443 108.3460057  32.8885688
  73.4125533 122.0926879  33.1940255  73.0192479 121.5393078  33.8687900
  74.2291673 122.4037458  33.5846773  76.3293494 123.5084758  30.7860512
  77.0703208 124.1091912  30.7064975  76.5611417 122.7662396  30.2278555
  71.3573521 125.8828569  30.1344918  71.9845560 125.5005646  30.7482443
  70.5001440 125.6642771  30.5000611  74.5941578 125.2046475  31.7958838
  74.6429734 126.0808597  31.4136608  75.1364092 124.6623868  31.2230481
  75.7201392 126.6429540  33.9838780  75.6198119 127.5923897  33.9150871
  75.5022934 126.3147779  33.1114850  67.3540296 126.8670463  28.1035270
  67.9999159 126.3569417  28.5922495  67.1457447 127.6039145  28.6778695
  71.6937787 124.0138080  32.2010284  72.5569248 123.6574885  32.4113609
  71.1203198 123.6751975  32.8885688  24.3557899  36.9961400  17.3871549
  23.9121753  36.2097779  17.0692453  25.0175112  37.1840551  16.7215440
  26.4539137  37.2764200  15.4152950  26.4357612  38.0973081  14.9233219
  27.3759057  37.1518275  15.6403091  27.3654978  33.9160038  17.8103668
  27.2140484  33.6870590  16.8933752  27.3559657  34.8730640  17.8235013
  29.0747184  36.9479161  15.8880150  29.0159730  36.2638381  15.2210733
  29.4766703  37.6898151  15.4360776  27.5598858  36.6494078  18.4643961
  28.1038762  37.2624036  17.9698915  26.9785703  37.2073656  18.9810974
  30.8827653  36.1090132  17.8005282  30.0923196  36.0914271  17.2609781
  30.6461007  36.6478426  18.5554318  32.5043724  35.3779540  15.3580032
  32.2128533  35.7409521  16.1943493  31.8915856  34.6646548  15.1793364
  25.6824917  34.2953845  20.3272717  26.5516076  34.4694497  19.9659352
  25.2031668  35.1148262  20.2048446  37.3417393  46.0042471   9.7317992
  37.9795803  45.8849218   9.0281332  37.2238235  46.9523315   9.7905944
  34.1507099  45.9569899   9.6679516  33.8125610  45.8410964   8.7800051
  35.0196867  45.5561064   9.6480522  34.6326882  47.1104751  15.6265722
  34.6215523  46.7157549  14.7546225  34.7947521  46.3770823  16.2199493
  27.5558347  49.3056567   8.4960628  28.3479638  48.9647392   8.0806927
  27.7954997  49.4151542   9.4162781  31.3534143  49.8941862  14.5744906
  31.0624009  50.7987493  14.4591572  31.9891127  49.9358390  15.2888975
  32.2790350  47.2718711  11.1646265  32.8753922  47.0474733  10.4503228
  32.3365321  46.5303456  11.7671713  42.2967088  43.6669158   7.7104178
  43.0292260  43.0968375   7.9442008  41.5406444  43.2790758   8.1510684
  39.8192509  37.3790732  12.1698787  39.4875833  38.2486143  11.9460002
  39.2238122  37.0627016  12.8492817  36.3124028  49.5803278  11.5694699
  36.0124751  50.4828317  11.4610507  35.9675088  49.3135461  12.4215852
  39.7121172  42.0985818   9.2492137  38.8038049  42.0301227   8.9550898
  39.6608768  42.5757763  10.0773962  31.2944808  56.3447598   4.5365667
  31.2168838  57.2955423   4.6154148  30.6906451  55.9993471   5.1940593
  33.7862038  43.5175464  17.1927034  33.0095372  44.0769384  17.1829899
  34.4252601  44.0032247  17.7141904  41.5782818  40.3002257  11.0270011
  40.9357199  40.5934790  10.3809805  41.0737747  40.1855177  11.8323207
  32.0408410  46.3260917  16.7545001  32.7823094  46.8645961  16.4779825
  31.3345395  46.9527206  16.9116553  37.5163750  48.4690058  15.3517163
  37.9247106  48.0272468  14.6071795  36.7941011  47.8942685  15.6051355
  33.8694820  43.4062664  12.7250720  34.7156015  43.8302078  12.8685369
  33.8093457  42.7496289  13.4189283  37.8392564  49.0291248   9.1069451
  37.2101427  49.1936962   8.4045519  37.4518226  49.4432858   9.8780415
  41.7181796  49.9645686   6.4613815  41.0332834  50.3444587   5.9110849
  41.8025645  50.5741013   7.1945763  37.0194265  41.0667033  14.3831893
  36.7755197  41.8209093  13.8466169  37.2954195  41.4452380  15.2179140
  38.9732728  47.6105645  13.0609159  39.1849623  48.2537405  12.3843540
  38.9262476  46.7767962  12.5931089  33.3920526  48.7665656   6.3719537
  33.8558872  49.0453359   5.5824159  33.1277324  47.8649101   6.1892627
  30.2844607  48.3137138   9.3099300  30.8545964  48.7424406   8.6716784
  30.8752719  48.0319723  10.0083485  30.7769774  43.4800565  17.5560311
  30.1468434  44.1616846  17.7895708  30.6705862  43.3683647  16.6113449
  40.0878556  50.4877601  11.2331516  40.9095999  50.0857788  10.9514198
  40.0840959  50.3845835  12.1847632  33.8535159  50.0361644  13.3892227
  33.9179592  50.4982051  14.2250398  33.1446083  49.4059009  13.5174536
  48.1784549  46.8316349   7.5816488  47.4248257  46.2623747   7.4260492
  48.3132090  46.7979014   8.5287122  30.0550516  37.7821331  19.9185562
  29.6617462  37.2287530  20.5933206  30.8716657  38.0931910  20.3092080
  28.8307459  52.3370946   5.9121885  29.0074087  53.2588910   5.7242869
  29.6264292  52.0229365   6.3416265  32.9718477  39.1979210  17.5105819
  33.7128191  39.7986363  17.4310281  33.2036400  38.4556848  16.9523861
  28.1159815  44.3835578  15.7884048  28.0013331  43.4820835  16.0891147
  27.2604333  44.6299274  15.4368865  35.1951653  52.3253318  17.3871549
  34.7515507  51.5389696  17.0692453  35.8568867  52.5132468  16.7215440
  29.9538774  53.8549119  11.9132228  30.5046199  53.7266183  11.1409221
  29.1150250  54.1544008  11.5627120  37.2932891  52.6056118  15.4152950
  37.2751367  53.4264999  14.9233219  38.2152811  52.4810193  15.6403091
  33.7505945  50.1200247  16.2576459  34.2834282  49.3588535  16.0275767
  33.2220027  49.8273899  17.0000613  40.0951504  47.4435260   8.8862317
  39.4375179  48.1334522   8.9742446  40.8991903  47.8331692   9.2296303
  38.9056963  45.7979633   6.9366259  39.4188845  46.4309625   7.4387968
  39.5558187  45.1980828   6.5709619  35.3837794  43.2729088   9.1824599
  34.4660355  43.4944035   9.0246287  35.7997937  43.3475399   8.3236307
  39.6718759  50.7785634   5.0645401  39.2181086  49.9376544   5.1210592
  39.0412726  51.4147033   5.4020181  38.1151698  52.6162131   5.9995219
  38.4074673  53.1767188   5.2807585  38.6250319  52.9090692   6.7548379
  33.0785324  53.3942482   7.0888673  33.0361502  53.6203328   6.1597205
  33.9948022  53.1605857   7.2374474  36.5250957  43.8626550  13.9869302
  36.8800345  44.0898023  14.8463768  37.1723089  44.1944926  13.3646557
  42.2548694  46.9844986   4.6918631  42.1166593  47.1746582   3.7639820
  41.8984913  47.7464368   5.1486682  42.2818074  49.0521513   9.7029902
  42.7154581  48.9596802  10.5512956  42.9949655  49.0279013   9.0649918
  31.1951124  50.2705511   6.8850635  31.9891723  49.7755831   6.6833210
  30.4842817  49.7423374   6.5218341  36.0145969  52.6523607  11.2363003
  36.0682991  53.2214543  12.0040719  35.1460750  52.8225492  10.8717040
  28.8944362  42.3541163  12.7187454  29.5667416  42.1458525  12.0700103
  28.0674149  42.1563249  12.2792687  43.1433623  49.0945213  12.2362788
  43.3369514  49.9991024  12.4822063  43.0434242  48.6352632  13.0701373
  34.7969934  38.9803104  14.7353115  34.1497849  39.6793053  14.6417592
  35.5670950  39.4139248  15.1029363  38.2048732  49.2451956  17.8103668
  38.0534239  49.0162508  16.8933752  38.1953412  50.2022557  17.8235013
  34.9734069  46.8183869  12.7949935  35.9026129  46.9695028  12.6218902
  34.5525099  46.9067889  11.9398581  33.7722400  50.8434533  10.5648472
  33.6333486  50.4753318  11.4374411  32.9836997  51.3582173  10.3932430
  34.3670552  55.9443630   1.9074009  34.5422308  55.4731673   2.7219632
  33.6803340  56.5709396   2.1355270  35.3227616  50.2216136   7.9537310
  34.9877448  50.1816906   8.8494960  34.8231561  49.5560852   7.4807721
  29.2971859  45.6283766  13.4789891  29.1591657  44.8964005  14.0801430
  30.2076783  45.5392666  13.1974079  31.9254160  45.3403725  12.9673571
  32.6353779  44.6996917  12.9260190  31.8823468  45.5916620  13.8899752
  39.9140939  52.2771079  15.8880150  39.8553485  51.5930299  15.2210733
  40.3160457  53.0190069  15.4360776  30.6383094  42.3268943  14.7869211
  30.1020451  41.8759682  15.4390807  30.0499803  42.4614852  14.0439675
  28.9331638  59.0932992   8.6813869  29.1728236  59.7251517   9.3592888
  28.0900834  58.7421032   8.9679228  39.9158346  50.2410662  14.1194130
  39.0285125  49.9036584  14.2420529  40.4856897  49.5093694  14.3562895
  33.4459499  54.9012115  11.0855373  33.3729671  55.7067086  11.5974678
  33.0036893  55.1004081  10.2603395  33.2349279  54.1383885   4.5958195
  32.4516801  54.6805565   4.6896419  33.9342024  54.6557864   4.9952436
  44.3975687  45.6518880   8.8810692  44.3865563  46.5343595   8.5104625
  43.5293066  45.2990431   8.6865229  35.9058183  54.7998949  13.2413532
  36.6186155  55.4346414  13.1689433  35.4148212  54.8962815  12.4253534
  37.6275710  48.7050202   4.8130824  36.6931989  48.8251664   4.6435528
  37.8052378  47.8022668   4.5490833  41.0148261  44.5467521   5.3480858
  41.4808713  45.3795512   5.2741160  41.4655762  44.0812502   6.0526116
  30.9570097  52.5493392  14.0619103  31.6579556  53.1829875  14.2148497
  30.4865212  52.8908124  13.3014742  38.7571382  45.1038000  11.8871653
  38.1042833  45.3513907  11.2324106  39.1351762  44.2902138  11.5534130
  35.7178556  55.1397693   5.9899823  35.9000951  54.3219349   6.4527576
  36.5411542  55.3565385   5.5524713  36.0520722  54.0665878   3.2514872
  36.5808488  53.5558333   2.6385034  36.3148941  53.7508408   4.1160405
  34.8058956  45.8457811  18.3737690  34.1299593  45.7451940  19.0440065
  35.6286589  45.6897025  18.8373687  26.5537815  52.0829747  10.9950205
  27.1391251  51.3373435  11.1278110  26.3562653  52.3933704  11.8786869
  29.4076470  55.1180995   6.0112648  28.7386845  55.6027122   5.5276688
  29.2689340  55.3650215   6.9256026  33.5481738  57.1524738  12.6095306
  34.1000046  57.3156360  13.3744391  33.8887932  57.7429176  11.9375331
  27.9998504  41.5723021  16.8590225  28.6270543  41.1900098  17.4727749
  27.1426423  41.3537223  17.2245918  38.3992613  51.9785996  18.4643961
  38.9432517  52.5915954  17.9698915  37.8179458  52.5365574  18.9810974
  36.6850126  55.1006714   9.5958988  36.5601265  54.2996454   9.0869934
  37.3429217  55.5952907   9.1072958  38.7485034  52.9015734  11.2238538
  37.8015370  52.7821085  11.1516865  39.0967807  52.0138232  11.3064800
  31.1084607  38.7909873  15.0476780  31.6319009  39.0372169  15.8103090
  30.8896941  39.6229908  14.6279918  35.7531467  52.6968450   7.4242891
  35.6056430  51.7685157   7.6050461  36.5784961  52.7188541   6.9399966
  39.3565589  53.5197009   8.5107763  40.2812137  53.3139870   8.3732214
  39.1880893  53.2713410   9.4197105  32.3137152  39.7323568  12.7326451
  31.9733973  38.9331381  13.1347131  31.6076159  40.0325279  12.1603284
  34.2014717  40.9331889  11.0879769  33.9432494  41.8548960  11.0864100
  33.6699757  40.5362324  11.7780234  39.1460905  54.0382676   3.8669855
  39.3197783  53.4729099   3.1143707  39.6389797  54.8383571   3.6849345
  24.9637865  46.0497345  11.9333414  24.4191333  46.8257153  12.0653688
  25.8417215  46.3968150  11.7752535  45.0000297  46.8019099   5.4860155
  45.4431443  46.0526424   5.0879278  44.1226807  46.7929236   5.1033886
  40.1336078  53.3549441   0.9666753  40.8286983  53.9756133   1.1854068
  40.4759228  52.5044792   1.2419131  25.7503887  45.1767242  14.8263570
  25.0085623  45.3249877  15.4128201  25.4296631  45.4375507  13.9630320
  42.0327501  50.8049146   2.4954084  42.5578825  51.1436419   1.7703404
  41.9449854  49.8696162   2.3117218  33.6947550  54.7183220  14.6243960
  34.0034676  54.4732367  15.4966660  34.4923032  54.9229858  14.1362831
  33.7168162  56.8721129   6.8549337  33.2773152  56.3797508   7.5482194
  34.4676279  56.3294097   6.6141412  26.1960501  53.0632670   6.8573965
  27.0218521  52.7636442   6.4772609  25.8454553  52.2940293   7.3063754
  31.1642034  52.4159139   8.9271639  30.5422043  51.7529844   8.6273867
  31.8346901  52.4420270   8.2445286  31.2366561  40.8940927  18.5204145
  31.2854717  41.7703049  18.1381914  31.7789076  40.3518320  17.9475788
  41.7221407  51.4382050  17.8005282  40.9316951  51.4206189  17.2609781
  41.4854762  51.9770344  18.5554318  41.8419282  48.2874516  15.1138010
  41.8917287  48.1224524  16.0553533  41.7333205  47.4201775  14.7235891
  39.1323045  44.2705444  16.4297317  40.0332907  44.1311909  16.1381315
  39.2071019  44.4359899  17.3695494  33.4665850  41.6472299  15.2750503
  32.5969159  41.9405865  15.0033092  33.7025330  42.2312744  15.9957767
  43.3437479  50.7071458  15.3580032  43.0522287  51.0701438  16.1943493
  42.7309610  49.9938466  15.1793364  44.5433161  48.2724338   7.8782602
  45.3780053  48.7114142   8.0420162  44.6792290  47.7962991   7.0590848
  41.5924667  45.8304072  13.8260090  42.0678789  46.0231719  13.0178941
  40.6690233  45.8863258  13.5803473  36.1704884  37.8651916  12.7915924
  36.6886828  38.6012943  12.4662412  35.8160016  38.1715909  13.6262683
  40.2926336  42.7069832  12.0588395  41.2443759  42.8067930  12.0800619
  40.1229787  41.9148101  12.5686480  38.3140716  39.7925416  12.2447796
  37.7190648  40.0730428  11.5494285  38.0290412  40.2819317  13.0164537
  42.7714414  45.9275952  11.1730695  42.7390734  44.9891953  11.3590379
  43.3815038  46.0059989  10.4396520  42.9208902  42.7186996  11.2188978
  42.4047951  41.9345452  11.0318907  43.8048851  42.3905712  11.3835498
  48.5890964  46.9891959  10.3136732  49.3194352  46.7277247  10.8744435
  47.9797909  46.2520681  10.3538800  46.6706261  45.1299822  10.9111183
  45.9439425  44.9955786  10.3027675  46.2553548  45.4376650  11.7167901
  34.4936437  48.8489751  18.6758556  35.4139447  49.0268350  18.8698603
  34.4586020  47.9045797  18.5238255  27.4898510  46.7590786  11.3181337
  27.7084520  47.6907894  11.3369371  27.9024284  46.3998760  12.1036141
  32.3626375  42.3323992  20.7084086  32.2623102  43.2818349  20.6396177
  32.1447917  42.0042231  19.8360156  32.2257645  45.7621130  19.5249148
  31.7424727  46.5621491  19.7313037  32.3118584  45.7729075  18.5716592
  28.1530983  49.6525665  11.5617582  29.1074236  49.6209608  11.4947513
  27.9543506  49.1916289  12.3767808  28.7430365  48.2226781  14.1288379
  29.5623254  48.7170860  14.1523217  29.0167173  47.3058749  14.1005947
  41.8511497  40.6384055   7.2070674  42.6271887  41.1280507   7.4795291
  41.1259631  41.0642109   7.6642544  44.2884056  41.3511674   8.2644615
  44.8828547  41.1107410   7.5537923  44.3610640  40.6318804   8.8918151
  26.5081212  55.1945285   8.5787780  26.3735680  54.4345686   8.0125778
  26.0913274  55.9186185   8.1116568  46.5955129  44.6577875   7.0388036
  46.0354687  44.7271064   7.8119598  45.9898632  44.4818859   6.3187532
  29.6650337  56.0914602   8.7906222  29.5482722  57.0360034   8.6884912
  28.8442784  55.7888163   9.1792021  23.9965279  42.5564915  14.8280576
  24.6424143  42.0463869  15.3167802  23.7882430  43.2933597  15.4024002
  36.5218671  49.6245763  20.3272717  37.3909831  49.7986415  19.9659352
  36.0425423  50.4440179  20.2048446  30.6904852  56.7442864  12.0062151
  31.5932098  56.7766474  12.3228646  30.4642222  55.8143315  12.0208486
  32.4458454  55.4973850   8.6672229  31.4954085  55.4975712   8.5536601
  32.7490940  54.7506585   8.1508264  28.3362770  39.7032532  18.9255591
  29.1994232  39.3469337  19.1358915  27.7628181  39.3646427  19.6130995
  48.1811147  61.3334389   9.7317992  48.8189557  61.2141136   9.0281332
  48.0631990  62.2815232   9.7905944  44.9900853  61.2861817   9.6679516
  44.6519365  61.1702881   8.7800051  45.8590622  60.8852982   9.6480522
  40.8487669  63.1397293   5.6576407  40.2852534  63.0487230   4.8892695
  40.7340064  62.3197198   6.1378900  45.4720636  62.4396668  15.6265722
  45.4609277  62.0449467  14.7546225  45.6341276  61.7062741  16.2199493
  38.3952101  64.6348485   8.4960628  39.1873393  64.2939309   8.0806927
  38.6348751  64.7443460   9.4162781  46.4287228  66.8068261   0.9690872
  45.7775208  67.3922341   0.5824886  47.2231591  67.3374456   1.0285910
  40.3542855  63.8957398   1.3678006  41.1273731  63.3486385   1.2290882
  40.7068254  64.7601647   1.5792468  42.1927898  65.2233780  14.5744906
  41.9017763  66.1279411  14.4591572  42.8284882  65.2650308  15.2888975
  43.1184104  62.6010629  11.1646265  43.7147677  62.3766651  10.4503228
  43.1759076  61.8595374  11.7671713  42.6909133  60.0550064  -1.0003544
  42.9434653  59.5331585  -1.7620081  41.7533692  59.8916209  -0.8976860
  47.7352416  59.0585842   6.8071200  48.5215505  58.6405266   6.4561617
  47.9991120  59.9631935   6.9752848  47.9062493  64.4958693   1.5059856
  47.2708326  64.5693319   2.2180761  47.5759899  65.0852292   0.8278936
  53.1360843  58.9961076   7.7104178  53.8686015  58.4260292   7.9442008
  52.3800198  58.6082676   8.1510684  42.4105421  61.9578170   1.2020831
  42.2941680  61.2823073   1.8701916  42.5207681  61.4710544   0.3852984
  44.7536962  61.4188317   4.9067521  44.3895170  60.8918938   5.6180442
  45.6104078  61.0286786   4.7334006  50.6586263  52.7082650  12.1698787
  50.3269588  53.5778061  11.9460002  50.0631876  52.3918934  12.8492817
  44.3942449  56.4478217  -0.0971131  44.5616852  57.3158453   0.2699340
  44.2039618  56.6105498  -1.0209842  47.1517783  64.9095196  11.5694699
  46.8518506  65.8120234  11.4610507  46.8068842  64.6427379  12.4215852
  40.6030264  61.3608993   7.6031404  39.6780761  61.2285207   7.8109096
  40.8514677  62.1403212   8.1001346  50.5514926  57.4277736   9.2492137
  49.6431804  57.3593144   8.9550898  50.5002522  57.9049681  10.0773962
  44.3731670  58.9035874   0.8875536  44.2531295  59.3492925   1.7261016
  43.6784259  59.2521192   0.3289074  37.9639075  61.0042266   8.4375193
  38.0931456  61.2576745   9.3514605  37.2836526  61.5969974   8.1179848
  42.1338562  71.6739516   4.5365667  42.0562592  72.6247341   4.6154148
  41.5300206  71.3285389   5.1940593  44.6255792  58.8467381  17.1927034
  43.8489126  59.4061302  17.1829899  45.2646355  59.3324164  17.7141904
  52.4176573  55.6294174  11.0270011  51.7750953  55.9226707  10.3809805
  51.9131501  55.5147095  11.8323207  50.0716736  59.3757347   1.7155870
  50.9834593  59.6084734   1.5403568  49.5626384  59.9594392   1.1530949
  42.8802164  61.6552835  16.7545001  43.6216849  62.1937879  16.4779825
  42.1739150  62.2819124  16.9116553  48.3557504  63.7981975  15.3517163
  48.7640860  63.3564386  14.6071795  47.6334766  63.2234603  15.6051355
  44.7088574  58.7354582  12.7250720  45.5549769  59.1593996  12.8685369
  44.6487212  58.0788206  13.4189283  48.6786319  64.3583166   9.1069451
  48.0495181  64.5228880   8.4045519  48.2911981  64.7724775   9.8780415
  52.5575551  65.2937604   6.4613815  51.8726589  65.6736505   5.9110849
  52.6419400  65.9032930   7.1945763  47.8588019  56.3958950  14.3831893
  47.6148951  57.1501011  13.8466169  48.1347950  56.7744298  15.2179140
  49.8126482  62.9397563  13.0609159  50.0243377  63.5829323  12.3843540
  49.7656231  62.1059879  12.5931089  47.4152711  55.5515383   9.9645731
  46.5537190  55.8496637  10.2562468  47.4415146  55.7685782   9.0326764
  44.2314281  64.0957574   6.3719537  44.6952626  64.3745277   5.5824159
  43.9671079  63.1941019   6.1892627  41.1238362  63.6429056   9.3099300
  41.6939719  64.0716324   8.6716784  41.7146474  63.3611640  10.0083485
  43.1683167  60.2180726   3.1809102  43.8707210  60.6701770   3.6483028
  42.8363795  59.5764545   3.8088995  41.6163528  58.8092483  17.5560311
  40.9862189  59.4908764  17.7895708  41.5099616  58.6975565  16.6113449
  36.9108501  58.4764279   8.4826235  36.1207555  58.7321808   8.0066346
  37.4019748  59.2912617   8.5878276  50.9272310  65.8169518  11.2331516
  51.7489754  65.4149705  10.9514198  50.9234713  65.7137752  12.1847632
  38.8623246  58.8408858   5.4409712  38.0654409  58.9527553   5.9593208
  38.6348838  59.1795510   4.5750602  44.6928914  65.3653562  13.3892227
  44.7573346  65.8273969  14.2250398  43.9839838  64.7350926  13.5174536
  35.1946204  58.7294769  10.9141226  35.4454242  59.6141779  11.1798802
  35.7305752  58.5499371  10.1416318  59.0178303  62.1608267   7.5816488
  58.2642012  61.5915665   7.4260492  59.1525844  62.1270931   8.5287122
  44.4076931  67.0321669   3.2571207  44.2722606  67.8773205   3.6856055
  44.9486744  67.2340947   2.4937141  40.8944271  53.1113249  19.9185562
  40.5011217  52.5579447  20.5933206  41.7110411  53.4223827  20.3092080
  37.8606329  64.5497107   3.8299132  38.3730849  65.3440357   3.9804697
  38.5129042  63.8523397   3.7632733  39.6701213  67.6662863   5.9121885
  39.8467842  68.5880828   5.7242869  40.4658047  67.3521283   6.3416265
  43.8112232  54.5271128  17.5105819  44.5521945  55.1278281  17.4310281
  44.0430155  53.7848766  16.9523861  38.9553570  59.7127495  15.7884048
  38.8407085  58.8112752  16.0891147  38.0998088  59.9591192  15.4368865
  46.0345408  67.6545236  17.3871549  45.5909262  66.8681614  17.0692453
  46.6962621  67.8424386  16.7215440  40.7932529  69.1841037  11.9132228
  41.3439954  69.0558100  11.1409221  39.9544005  69.4835926  11.5627120
  48.1326646  67.9348035  15.4152950  48.1145121  68.7556916  14.9233219
  49.0546566  67.8102111  15.6403091  44.5899700  65.4492165  16.2576459
  45.1228037  64.6880453  16.0275767  44.0613781  65.1565817  17.0000613
  47.7569395  50.5552231  11.7870100  47.4133664  51.4453873  11.7109211
  48.1248357  50.3653889  10.9239685  35.8255245  62.8785761   4.6058703
  36.6630467  63.2882770   4.3892410  36.0033513  61.9385203   4.5758896
  47.7219678  60.5460842   0.2942535  47.2066301  61.3165447   0.5330923
  47.4496986  59.8725978   0.9175597  45.3066789  55.3910543   5.3527774
  44.4508385  55.0017393   5.1733413  45.7193740  55.4702504   4.4927559
  46.8365935  52.9256886   9.7519334  46.3330731  52.8887021   8.9387139
  47.1296542  53.8349629   9.8115990  43.0808821  53.0095616   8.7585515
  43.9461818  52.8138424   8.3991405  43.1486330  52.7805968   9.6854872
  52.6953952  63.2993197   2.2295709  51.9183394  62.9604356   1.7850871
  53.3745433  63.3045820   1.5550674  47.5105981  58.4187934   2.1202317
  47.2056116  58.7334083   2.9712460  48.4636423  58.4969354   2.1629650
  45.9552413  64.5778157   3.7695271  45.4273774  63.8430917   3.4568508
  45.4539915  65.3552834   3.5235239  50.9345259  62.7727178   8.8862317
  50.2768933  63.4626439   8.9742446  51.7385658  63.1623610   9.2296303
  40.6871140  55.2397824   6.1301882  41.2614892  55.0173005   5.3975075
  41.2742123  55.3086518   6.8830483  49.7450717  61.1271551   6.9366259
  50.2582599  61.7601542   7.4387968  50.3951941  60.5272746   6.5709619
  41.0140727  57.2702285   0.1497767  40.1778040  57.6076971   0.4707042
  40.8745497  57.1351264  -0.7875096  42.9893808  52.1139073   4.8576952
  42.3358220  51.7988090   4.2333566  42.9474282  51.4914813   5.5836775
  44.1005013  62.3958368  -3.2269756  43.1932075  62.1647621  -3.0278607
  44.5976045  61.5995987  -3.0395775  47.0073092  71.1055875  -0.3073070
  46.3334790  71.4087572   0.3011888  47.3938914  71.9084955  -0.6567613
  46.2231548  58.6021006   9.1824599  45.3054110  58.8235953   9.0246287
  46.6391692  58.6767317   8.3236307  47.0066596  60.0012422   4.3127279
  47.7538415  60.5133819   4.0034402  47.2758186  59.6796475   5.1731673
  45.2793246  62.4970963   1.2954234  44.3704465  62.2129995   1.3926704
  45.3088330  62.9170041   0.4357541  50.5112514  66.1077552   5.0645401
  50.0574841  65.2668462   5.1210592  49.8806480  66.7438950   5.4020181
  49.4545433  57.0369538   6.2946069  48.7168190  56.5246924   6.6256311
  49.7072207  56.5969920   5.4829346  48.9545453  67.9454049   5.9995219
  49.2468427  68.5059106   5.2807585  49.4644073  68.2382610   6.7548379
  49.5557061  49.8145790   6.8887838  49.8615937  48.9543153   6.6013753
  50.2809665  50.4063410   6.6886832  35.8481417  60.2176477   5.2769436
  35.6505816  59.6245837   4.5520503  35.2928081  59.9128687   5.9945375
  43.8278140  60.1099583   7.3964029  43.8826750  59.1573420   7.3206506
  43.0169342  60.2659022   7.8805328  44.9769334  64.0379706  -1.3657688
  44.5388764  63.3215565  -1.8252050  45.7179775  64.2655821  -1.9272596
  41.7670500  58.7276643   5.1554408  40.9538366  59.0270813   5.5619600
  42.2629494  58.3332332   5.8728890  43.9179078  68.7234400   7.0888673
  43.8755257  68.9495246   6.1597205  44.8341777  68.4897774   7.2374474
  47.3644712  59.1918467  13.9869302  47.7194100  59.4189940  14.8463768
  48.0116843  59.5236844  13.3646557  53.0942449  62.3136903   4.6918631
  52.9560347  62.5038499   3.7639820  52.7378668  63.0756286   5.1486682
  41.2584575  56.2994998  10.7715643  41.8983954  56.1583757  10.0738606
  40.4262105  56.0129512  10.3954245  53.1211828  64.3813430   9.7029902
  53.5548335  64.2888719  10.5512956  53.8343409  64.3570931   9.0649918
  42.0344879  65.5997429   6.8850635  42.8285477  65.1047749   6.6833210
  41.3236571  65.0715292   6.5218341  46.8539723  67.9815524  11.2363003
  46.9076746  68.5506461  12.0040719  45.9854505  68.1517409  10.8717040
  38.3427642  59.7440511   2.9610388  37.4125230  59.6824966   3.1780350
  38.4385114  59.2216463   2.1647029  38.2613191  56.2695323   5.5488630
  38.5220009  57.1840657   5.4397790  39.0830364  55.8019766   5.6985243
  39.7338117  57.6833081  12.7187454  40.4061170  57.4750443  12.0700103
  38.9067903  57.4855167  12.2792687  53.9827378  64.4237131  12.2362788
  54.1763268  65.3282941  12.4822063  53.8827996  63.9644550  13.0701373
  45.6363689  54.3095021  14.7353115  44.9891604  55.0084971  14.6417592
  46.4064704  54.7431165  15.1029363  49.0442487  64.5743874  17.8103668
  48.8927993  64.3454425  16.8933752  49.0347166  65.5314475  17.8235013
  45.8127823  62.1475786  12.7949935  46.7419883  62.2986946  12.6218902
  45.3918853  62.2359807  11.9398581  44.6116155  66.1726451  10.5648472
  44.4727241  65.8045235  11.4374411  43.8230751  66.6874090  10.3932430
  45.2064307  71.2735547   1.9074009  45.3816063  70.8023590   2.7219632
  44.5197095  71.9001313   2.1355270  46.1621370  65.5508053   7.9537310
  45.8271203  65.5108823   8.8494960  45.6625316  64.8852769   7.4807721
  40.1365614  60.9575684  13.4789891  39.9985412  60.2255922  14.0801430
  41.0470537  60.8684584  13.1974079  49.0980562  62.8964088  -1.7725630
  48.4809732  62.1710916  -1.8692577  48.6297050  63.6573448  -2.1158556
  42.7647915  60.6695643  12.9673571  43.4747533  60.0288835  12.9260190
  42.7217223  60.9208538  13.8899752  50.7534693  67.6062996  15.8880150
  50.6947239  66.9222216  15.2210733  51.1554212  68.3481986  15.4360776
  41.4776849  57.6560861  14.7869211  40.9414206  57.2051599  15.4390807
  40.8893557  57.7906770  14.0439675  39.7725392  74.4224910   8.6813869
  40.0121990  75.0543434   9.3592888  38.9294589  74.0712950   8.9679228
  50.7552101  65.5702580  14.1194130  49.8678879  65.2328502  14.2420529
  51.3250652  64.8385611  14.3562895  32.4081248  61.9026672   7.4437181
  33.0952288  61.5888402   6.8558197  32.2529376  62.8068037   7.1704433
  37.2115970  56.7916868  11.8722205  37.1274159  56.1842538  11.1372615
  36.3898676  57.2825887  11.8731701  44.2853254  70.2304032  11.0855373
  44.2123425  71.0359004  11.5974678  43.8430647  70.4295998  10.2603395
  44.0743034  69.4675803   4.5958195  43.2910555  70.0097483   4.6896419
  44.7735779  69.9849782   4.9952436  47.3839684  55.2770432   7.2392400
  47.8808383  54.5240394   6.9193470  46.6126665  55.3134749   6.6735609
  55.2369441  60.9810797   8.8810692  55.2259317  61.8635513   8.5104625
  54.3686821  60.6282348   8.6865229  46.7451937  70.1290867  13.2413532
  47.4579910  70.7638331  13.1689433  46.2541966  70.2254732  12.4253534
  48.4669464  64.0342119   4.8130824  47.5325743  64.1543582   4.6435528
  48.6446133  63.1314586   4.5490833  43.9674652  57.4187815   6.9664085
  43.5972440  56.8658855   7.6544990  44.4633745  56.8145948   6.4139085
  51.8542016  59.8759438   5.3480858  52.3202468  60.7087430   5.2741160
  52.3049516  59.4104420   6.0526116  41.7963851  67.8785310  14.0619103
  42.4973311  68.5121793  14.2148497  41.3258966  68.2200042  13.3014742
  49.9218247  66.2203260   2.3467010  50.1978091  66.1059854   3.2560884
  49.0522746  65.8220745   2.3079183  49.8258678  52.2440025   9.3871759
  48.9121758  52.4744252   9.5553966  50.2551780  52.3278470  10.2385791
  49.5965137  60.4329917  11.8871653  48.9436587  60.6805825  11.2324106
  49.9745517  59.6194056  11.5534130  46.5572311  70.4689611   5.9899823
  46.7394705  69.6511267   6.4527576  47.3805297  70.6857303   5.5524713
  46.8914476  69.3957796   3.2514872  47.4202243  68.8850250   2.6385034
  47.1542696  69.0800326   4.1160405  45.6452710  61.1749728  18.3737690
  44.9693347  61.0743858  19.0440065  46.4680344  61.0188942  18.8373687
  37.3931569  67.4121665  10.9950205  37.9785006  66.6665353  11.1278110
  37.1956408  67.7225622  11.8786869  40.2470224  70.4472912   6.0112648
  39.5780600  70.9319040   5.5276688  40.1083094  70.6942133   6.9256026
  31.9849224  59.9827265   9.7154648  32.0233323  59.4490856  10.5091767
  31.4789517  59.4562471   9.0965626  44.3875493  72.4816656  12.6095306
  44.9393801  72.6448277  13.3744391  44.7281686  73.0721094  11.9375331
  39.3639986  54.8291806  13.2117191  39.4281313  55.6906637  12.7994588
  39.3007106  54.2165807  12.4789549  38.8392259  56.9014938  16.8590225
  39.4664297  56.5192016  17.4727749  37.9820178  56.6829140  17.2245918
  49.2386367  67.3077913  18.4643961  49.7826271  67.9207872  17.9698915
  48.6573212  67.8657492  18.9810974  35.6157801  58.7091367   2.7908580
  35.9111242  57.8002046   2.7375634  34.7145837  58.6879107   2.4689582
  47.5243880  70.4298631   9.5958988  47.3995020  69.6288371   9.0869934
  48.1822971  70.9244825   9.1072958  39.1452048  56.7847364   8.7736128
  38.4238634  57.3983332   8.6343602  39.9345304  57.3205129   8.6952774
  49.5878789  68.2307652  11.2238538  48.6409124  68.1113003  11.1516865
  49.9361562  67.3430150  11.3064800  41.9478362  54.1201790  15.0476780
  42.4712764  54.3664087  15.8103090  41.7290695  54.9521825  14.6279918
  37.3445643  56.3905465   2.9147905  37.0158349  55.5102844   2.7323011
  37.6985014  56.3353134   3.8024294  46.5925222  68.0260368   7.4242891
  46.4450184  67.0977075   7.6050461  47.4178715  68.0480458   6.9399966
  40.4587466  56.6778435   3.2823383  40.7983539  57.2064356   2.5601991
  40.9059587  57.0158841   4.0581949  50.1959344  68.8488926   8.5107763
  51.1205891  68.6431788   8.3732214  50.0274647  68.6005328   9.4197105
  43.1530907  55.0615486  12.7326451  42.8127727  54.2623299  13.1347131
  42.4469913  55.3617196  12.1603284  43.8047379  52.1464798  11.1853774
  44.6273448  51.6725276  11.0632664  44.0485442  52.9255282  11.6852460
  42.4455613  55.1753056   1.4816675  43.1663976  55.5534309   0.9780392
  41.8220917  55.8941933   1.5851653  46.5886736  55.8798205   2.4175008
  46.8050351  56.7622843   2.1163836  46.1080803  55.4884419   1.6880650
  41.3285958  58.8383919   8.9945752  41.1830538  59.1524222   9.8870034
  40.8511161  59.4568819   8.4416651  43.1882340  55.8286467   9.0426642
  43.1743909  54.9327560   8.7058940  43.9054769  55.8357130   9.6764928
  45.0408471  56.2623807  11.0879769  44.7826249  57.1840877  11.0864100
  44.5093512  55.8654241  11.7780234  49.9854660  69.3674594   3.8669855
  50.1591537  68.8021016   3.1143707  50.4783551  70.1675489   3.6849345
  35.8031620  61.3789263  11.9333414  35.2585088  62.1549071  12.0653688
  36.6810970  61.7260067  11.7752535  42.5919236  54.7100847   4.3114212
  42.7135148  53.7817493   4.5105100  42.3021279  54.7239533   3.3992528
  45.4610427  52.3955757   7.4480932  45.4832124  52.4595090   6.4932911
  45.8778486  51.5560266   7.6421438  55.8394051  62.1311017   5.4860155
  56.2825197  61.3818342   5.0879278  54.9620561  62.1221153   5.1033886
  50.9729832  68.6841358   0.9666753  51.6680737  69.3048051   1.1854068
  51.3152983  67.8336710   1.2419131  36.5897642  60.5059159  14.8263570
  35.8479378  60.6541795  15.4128201  36.2690386  60.7667425  13.9630320
  52.8721256  66.1341064   2.4954084  53.3972580  66.4728337   1.7703404
  52.7843608  65.1988079   2.3117218  44.5341304  70.0475138  14.6243960
  44.8428431  69.8024284  15.4966660  45.3316786  70.2521776  14.1362831
  44.5561916  72.2013047   6.8549337  44.1166907  71.7089426   7.5482194
  45.3070033  71.6586015   6.6141412  37.0354255  68.3924588   6.8573965
  37.8612275  68.0928360   6.4772609  36.6848307  67.6232210   7.3063754
  42.0035788  67.7451056   8.9271639  41.3815798  67.0821761   8.6273867
  42.6740655  67.7712188   8.2445286  35.2362860  66.3110914   7.8162899
  34.3994769  65.8833089   7.6346900  35.2086506  66.5043358   8.7533690
  42.0760316  56.2232844  18.5204145  42.1248471  57.0994967  18.1381914
  42.6182830  55.6810237  17.9475788  52.5615162  66.7673968  17.8005282
  51.7710705  66.7498106  17.2609781  52.3248516  67.3062261  18.5554318
  52.6813037  63.6166434  15.1138010  52.7311042  63.4516441  16.0553533
  52.5726960  62.7493693  14.7235891  41.5649295  66.2954980   2.4030099
  41.7137416  66.9790444   1.7496772  42.3715739  66.2760070   2.9179555
  49.9716799  59.5997362  16.4297317  50.8726662  59.4603827  16.1381315
  50.0464774  59.7651817  17.3695494  44.3059604  56.9764217  15.2750503
  43.4362914  57.2697783  15.0033092  44.5419085  57.5604662  15.9957767
  54.1831233  66.0363375  15.3580032  53.8916042  66.3993356  16.1943493
  53.5703365  65.3230384  15.1793364  55.3826916  63.6016255   7.8782602
  56.2173807  64.0406059   8.0420162  55.5186045  63.1254908   7.0590848
  52.4318422  61.1595990  13.8260090  52.9072543  61.3523636  13.0178941
  51.5083987  61.2155176  13.5803473  39.3201928  62.3220157   3.4091168
  39.0747970  61.4182487   3.6071378  39.4897843  62.3237308   2.4670646
  47.0098638  53.1943834  12.7915924  47.5280582  53.9304861  12.4662412
  46.6553771  53.5007827  13.6262683  38.5897576  58.0548515   0.9077330
  37.8966821  58.1292870   0.2517366  38.3449328  57.2908858   1.4298846
  47.2611232  49.6144116   8.3116820  47.5412986  48.9467305   8.9377247
  48.0461839  49.8073212   7.7991484  45.0644701  68.7903110  -0.1258153
  44.4918668  69.4093297  -0.5787682  45.6377495  69.3402472   0.4081769
  51.1320091  58.0361750  12.0588395  52.0837514  58.1359848  12.0800619
  50.9623541  57.2440019  12.5686480  49.1534470  55.1217333  12.2447796
  48.5584402  55.4022346  11.5494285  48.8684167  55.6111234  13.0164537
  48.2841961  69.0740260   1.0050429  49.2172634  69.0085822   1.2083304
  48.1965173  69.9096527   0.5464962  50.9129977  68.3906131  -2.0345624
  50.8343609  68.0565994  -1.1409866  51.7339644  68.8827898  -2.0354151
  53.6108168  61.2567870  11.1730695  53.5784489  60.3183871  11.3590379
  54.2208792  61.3351907  10.4396520  45.4491499  60.1263923  -2.7842101
  46.3950604  59.9970131  -2.7153683  45.0705744  59.3878585  -2.3072673
  53.7602657  58.0478913  11.2188978  53.2441706  57.2637370  11.0318907
  54.6442605  57.7197630  11.3835498  51.4213384  51.7919929   7.1784791
  51.2238205  51.4835017   8.0628123  52.0313089  52.5181568   7.3082721
  59.4284718  62.3183877  10.3136732  60.1588107  62.0569165  10.8744435
  58.8191664  61.5812599  10.3538800  57.5100015  60.4591739  10.9111183
  56.7833179  60.3247704  10.3027675  57.0947302  60.7668568  11.7167901
  45.3330192  64.1781669  18.6758556  46.2533201  64.3560268  18.8698603
  45.2979775  63.2337714  18.5238255  43.6334416  58.0513899  -2.8487216
  42.7265872  57.7547012  -2.7724502  43.9110398  57.7543717  -3.7152929
  34.5512357  59.3720263   7.6011831  34.2315141  58.5185571   7.3086205
  34.0045785  59.5868841   8.3569798  38.3292264  62.0882704  11.3181337
  38.5478274  63.0199811  11.3369371  38.7418038  61.7290678  12.1036141
  45.2496482  52.5950789   3.3057026  44.4397211  52.2497874   3.6812272
  45.9380899  52.2858333   3.8944637  47.1787031  51.6728836   4.9281322
  47.7318069  52.0924289   5.5871345  47.4157117  50.7464584   4.9704278
  43.2020130  57.6615909  20.7084086  43.1016857  58.6110266  20.6396177
  42.9841672  57.3334148  19.8360156  34.4200617  62.9923174   9.5704952
  33.7264088  62.5777127   9.0574907  35.1673608  63.0343711   8.9738371
  50.5565838  53.7829361   4.4359987  49.9764507  54.4414165   4.0538039
  50.2901770  52.9606705   4.0247404  49.0069404  53.1834419   6.6381307
  49.5069182  53.2950953   5.8295626  49.6505012  52.8795471   7.2782115
  43.0651400  61.0913048  19.5249148  42.5818482  61.8913408  19.7313037
  43.1512339  61.1020993  18.5716592  36.3337359  62.9241428   7.4470967
  36.3108048  63.0229115   6.4952850  36.6437996  63.7706579   7.7688133
  38.9924737  64.9817583  11.5617582  39.9467991  64.9501525  11.4947513
  38.7937261  64.5208207  12.3767808  39.5824119  63.5518699  14.1288379
  40.4017008  64.0462778  14.1523217  39.8560927  62.6350667  14.1005947
  49.3390716  55.9429451   3.4916335  48.4516571  56.2279102   3.2736530
  49.7544705  55.7823215   2.6443612  52.6905252  55.9675972   7.2070674
  53.4665642  56.4572425   7.4795291  51.9653386  56.3934026   7.6642544
  55.1277810  56.6803591   8.2644615  55.7222301  56.4399327   7.5537923
  55.2004394  55.9610722   8.8918151  37.3474966  70.5237202   8.5787780
  37.2129434  69.7637603   8.0125778  36.9307028  71.2478102   8.1116568
  48.4833929  65.7074126  -2.4135645  49.1869779  65.9124128  -1.7977990
  47.7596578  66.2750888  -2.1486562  49.3131739  61.4583987   3.7066625
  49.2566941  61.9152539   2.8674257  49.8660082  60.6974672   3.5289468
  53.1236545  57.2473719   4.5316744  52.8673480  56.8470355   5.3624952
  52.4989413  57.9617513   4.4066884  57.4348883  59.9869792   7.0388036
  56.8748441  60.0562982   7.8119598  56.8292386  59.8110777   6.3187532
  40.5044092  71.4206519   8.7906222  40.3876476  72.3651952   8.6884912
  39.6836538  71.1180081   9.1792021  50.3920626  66.1456655  -0.3637185
  51.2266230  65.7137854  -0.5459710  50.2304969  65.9738669   0.5639709
  50.0466519  62.6488768   1.0019154  49.9915322  62.4833040   0.0607598
  49.4212574  63.3564801   1.1581344  34.8359034  57.8856833  14.8280576
  35.4817897  57.3755787  15.3167802  34.6276185  58.6225514  15.4024002
  47.3612426  64.9537680  20.3272717  48.2303585  65.1278333  19.9659352
  46.8819177  65.7732097  20.2048446  43.3562644  52.1496877   0.5804473
  43.3441314  53.0938717   0.7372743  44.2486066  51.9667023   0.2863934
  41.5298606  72.0734781  12.0062151  42.4325853  72.1058392  12.3228646
  41.3035976  71.1435232  12.0208486  43.2852208  70.8265768   8.6672229
  42.3347839  70.8267629   8.5536601  43.5884694  70.0798502   8.1508264
  47.1714764  48.7439654   4.8350409  46.4047159  48.1898141   4.9807092
  47.5825469  48.8161523   5.6964561  39.1756525  55.0324450  18.9255591
  40.0387986  54.6761255  19.1358915  38.6021935  54.6938345  19.6130995
  59.0204902  76.6626306   9.7317992  59.6583312  76.5433054   9.0281332
  58.9025744  77.6107150   9.7905944  55.8294608  76.6153734   9.6679516
  55.4913119  76.4994799   8.7800051  56.6984376  76.2144899   9.6480522
  51.6881424  78.4689211   5.6576407  51.1246289  78.3779148   4.8892695
  51.5733819  77.6489115   6.1378900  56.3114391  77.7688586  15.6265722
  56.3003032  77.3741384  14.7546225  56.4735030  77.0354659  16.2199493
  49.2345855  79.9640402   8.4960628  50.0267147  79.6231227   8.0806927
  49.4742506  80.0735377   9.4162781  57.2680982  82.1360178   0.9690872
  56.6168962  82.7214259   0.5824886  58.0625345  82.6666373   1.0285910
  51.1936609  79.2249316   1.3678006  51.9667485  78.6778303   1.2290882
  51.5462008  80.0893565   1.5792468  53.0321652  80.5525698  14.5744906
  52.7411518  81.4571329  14.4591572  53.6678636  80.5942225  15.2888975
  53.9577859  77.9302546  11.1646265  54.5541431  77.7058569  10.4503228
  54.0152830  77.1887292  11.7671713  53.5302887  75.3841982  -1.0003544
  53.7828408  74.8623503  -1.7620081  52.5927446  75.2208127  -0.8976860
  58.5746170  74.3877760   6.8071200  59.3609259  73.9697183   6.4561617
  58.8384874  75.2923852   6.9752848  58.7456247  79.8250610   1.5059856
  58.1102080  79.8985237   2.2180761  58.4153654  80.4144209   0.8278936
  63.9754597  74.3252993   7.7104178  64.7079769  73.7552210   7.9442008
  63.2193953  73.9374594   8.1510684  53.2499176  77.2870088   1.2020831
  53.1335434  76.6114991   1.8701916  53.3601436  76.8002462   0.3852984
  55.5930717  76.7480235   4.9067521  55.2288924  76.2210856   5.6180442
  56.4497833  76.3578704   4.7334006  61.4980018  68.0374567  12.1698787
  61.1663342  68.9069978  11.9460002  60.9025631  67.7210851  12.8492817
  55.2336204  71.7770134  -0.0971131  55.4010606  72.6450371   0.2699340
  55.0433373  71.9397416  -1.0209842  57.9911537  80.2387113  11.5694699
  57.6912260  81.1412152  11.4610507  57.6462597  79.9719297  12.4215852
  51.4424019  76.6900910   7.6031404  50.5174515  76.5577124   7.8109096
  51.6908432  77.4695129   8.1001346  61.3908681  72.7569654   9.2492137
  60.4825558  72.6885062   8.9550898  61.3396277  73.2341598  10.0773962
  55.2125425  74.2327792   0.8875536  55.0925050  74.6784843   1.7261016
  54.5178013  74.5813110   0.3289074  48.8032830  76.3334184   8.4375193
  48.9325211  76.5868663   9.3514605  48.1230281  76.9261892   8.1179848
  52.9732317  87.0031434   4.5365667  52.8956347  87.9539259   4.6154148
  52.3693960  86.6577306   5.1940593  55.4649547  74.1759299  17.1927034
  54.6882881  74.7353219  17.1829899  56.1040110  74.6616082  17.7141904
  63.2570327  70.9586092  11.0270011  62.6144708  71.2518625  10.3809805
  62.7525256  70.8439012  11.8323207  60.9110491  74.7049265   1.7155870
  61.8228347  74.9376652   1.5403568  60.4020138  75.2886309   1.1530949
  53.7195919  76.9844752  16.7545001  54.4610603  77.5229796  16.4779825
  53.0132904  77.6111041  16.9116553  59.1951259  79.1273893  15.3517163
  59.6034615  78.6856303  14.6071795  58.4728520  78.5526520  15.6051355
  55.5482329  74.0646500  12.7250720  56.3943524  74.4885913  12.8685369
  55.4880966  73.4080124  13.4189283  59.5180073  79.6875084   9.1069451
  58.8888936  79.8520798   8.4045519  59.1305735  80.1016693   9.8780415
  63.3969305  80.6229521   6.4613815  62.7120343  81.0028423   5.9110849
  63.4813154  81.2324848   7.1945763  58.6981774  71.7250868  14.3831893
  58.4542706  72.4792929  13.8466169  58.9741704  72.1036216  15.2179140
  60.6520237  78.2689480  13.0609159  60.8637132  78.9121240  12.3843540
  60.6049985  77.4351797  12.5931089  58.2546466  70.8807301   9.9645731
  57.3930945  71.1788555  10.2562468  58.2808900  71.0977700   9.0326764
  55.0708035  79.4249492   6.3719537  55.5346381  79.7037195   5.5824159
  54.8064833  78.5232936   6.1892627  51.9632116  78.9720973   9.3099300
  52.5333473  79.4008242   8.6716784  52.5540228  78.6903558  10.0083485
  54.0076921  75.5472644   3.1809102  54.7100965  75.9993688   3.6483028
  53.6757550  74.9056463   3.8088995  52.4557283  74.1384401  17.5560311
  51.8255943  74.8200682  17.7895708  52.3493371  74.0267482  16.6113449
  47.7502255  73.8056197   8.4826235  46.9601309  74.0613725   8.0066346
  48.2413503  74.6204535   8.5878276  61.7666065  81.1461436  11.2331516
  62.5883508  80.7441623  10.9514198  61.7628468  81.0429670  12.1847632
  49.7017001  74.1700776   5.4409712  48.9048164  74.2819470   5.9593208
  49.4742593  74.5087428   4.5750602  55.5322668  80.6945479  13.3892227
  55.5967101  81.1565886  14.2250398  54.8233592  80.0642844  13.5174536
  46.0339958  74.0586687  10.9141226  46.2847997  74.9433697  11.1798802
  46.5699507  73.8791289  10.1416318  69.8572058  77.4900184   7.5816488
  69.1035766  76.9207582   7.4260492  69.9919599  77.4562849   8.5287122
  55.2470686  82.3613587   3.2571207  55.1116361  83.2065122   3.6856055
  55.7880498  82.5632864   2.4937141  51.7338025  68.4405167  19.9185562
  51.3404971  67.8871365  20.5933206  52.5504166  68.7515745  20.3092080
  48.7000083  79.8789025   3.8299132  49.2124604  80.6732275   3.9804697
  49.3522796  79.1815315   3.7632733  50.5094968  82.9954781   5.9121885
  50.6861596  83.9172746   5.7242869  51.3051801  82.6813200   6.3416265
  54.6505986  69.8563046  17.5105819  55.3915700  70.4570199  17.4310281
  54.8823909  69.1140683  16.9523861  49.7947324  75.0419413  15.7884048
  49.6800840  74.1404670  16.0891147  48.9391842  75.2883110  15.4368865
  56.8739162  82.9837153  17.3871549  56.4303016  82.1973532  17.0692453
  57.5356376  83.1716304  16.7215440  51.6326283  84.5132955  11.9132228
  52.1833708  84.3850018  11.1409221  50.7937759  84.8127844  11.5627120
  58.9720400  83.2639953  15.4152950  58.9538876  84.0848834  14.9233219
  59.8940320  83.1394028  15.6403091  55.4293454  80.7784083  16.2576459
  55.9621791  80.0172371  16.0275767  54.9007535  80.4857734  17.0000613
  58.5963149  65.8844149  11.7870100  58.2527419  66.7745790  11.7109211
  58.9642112  65.6945806  10.9239685  46.6649000  78.2077679   4.6058703
  47.5024222  78.6174687   4.3892410  46.8427268  77.2677121   4.5758896
  58.5613432  75.8752760   0.2942535  58.0460056  76.6457364   0.5330923
  58.2890741  75.2017896   0.9175597  56.1460543  70.7202460   5.3527774
  55.2902139  70.3309311   5.1733413  56.5587495  70.7994421   4.4927559
  57.6759690  68.2548804   9.7519334  57.1724485  68.2178939   8.9387139
  57.9690297  69.1641546   9.8115990  53.9202576  68.3387533   8.7585515
  54.7855572  68.1430342   8.3991405  53.9880085  68.1097885   9.6854872
  63.5347706  78.6285114   2.2295709  62.7577149  78.2896274   1.7850871
  64.2139187  78.6337737   1.5550674  58.3499735  73.7479852   2.1202317
  58.0449871  74.0626001   2.9712460  59.3030177  73.8261272   2.1629650
  56.7946167  79.9070075   3.7695271  56.2667529  79.1722835   3.4568508
  56.2933670  80.6844751   3.5235239  61.7739013  78.1019096   8.8862317
  61.1162688  78.7918357   8.9742446  62.5779412  78.4915527   9.2296303
  51.5264895  70.5689741   6.1301882  52.1008647  70.3464923   5.3975075
  52.1135877  70.6378436   6.8830483  60.5844472  76.4563468   6.9366259
  61.0976354  77.0893460   7.4387968  61.2345696  75.8564664   6.5709619
  51.8534482  72.5994202   0.1497767  51.0171794  72.9368889   0.4707042
  51.7139251  72.4643182  -0.7875096  53.8287562  67.4430990   4.8576952
  53.1751975  67.1280007   4.2333566  53.7868037  66.8206731   5.5836775
  54.9398767  77.7250285  -3.2269756  54.0325829  77.4939539  -3.0278607
  55.4369799  76.9287905  -3.0395775  57.0625303  73.9312924   9.1824599
  56.1447864  74.1527871   9.0246287  57.4785446  74.0059234   8.3236307
  57.8460351  75.3304339   4.3127279  58.5932169  75.8425737   4.0034402
  58.1151940  75.0088392   5.1731673  56.1187001  77.8262880   1.2954234
  55.2098220  77.5421913   1.3926704  56.1482085  78.2461959   0.4357541
  61.3506268  81.4369470   5.0645401  60.8968595  80.5960380   5.1210592
  60.7200235  82.0730868   5.4020181  60.2939188  72.3661456   6.2946069
  59.5561944  71.8538842   6.6256311  60.5465961  71.9261837   5.4829346
  59.7939207  83.2745966   5.9995219  60.0862182  83.8351023   5.2807585
  60.3037828  83.5674527   6.7548379  60.3950815  65.1437708   6.8887838
  60.7009692  64.2835071   6.6013753  61.1203420  65.7355328   6.6886832
  46.6875171  75.5468394   5.2769436  46.4899571  74.9537755   4.5520503
  46.1321835  75.2420605   5.9945375  54.6671895  75.4391501   7.3964029
  54.7220505  74.4865337   7.3206506  53.8563097  75.5950940   7.8805328
  55.8163089  79.3671624  -1.3657688  55.3782518  78.6507483  -1.8252050
  56.5573529  79.5947739  -1.9272596  52.6064255  74.0568561   5.1554408
  51.7932120  74.3562731   5.5619600  53.1023249  73.6624249   5.8728890
  54.7572833  84.0526317   7.0888673  54.7149011  84.2787164   6.1597205
  55.6735531  83.8189692   7.2374474  58.2038466  74.5210385  13.9869302
  58.5587854  74.7481858  14.8463768  58.8510598  74.8528762  13.3646557
  63.9336203  77.6428821   4.6918631  63.7954102  77.8330417   3.7639820
  63.5772422  78.4048204   5.1486682  52.0978329  71.6286916  10.7715643
  52.7377709  71.4875675  10.0738606  51.2655860  71.3421429  10.3954245
  63.9605583  79.7105348   9.7029902  64.3942090  79.6180637  10.5512956
  64.6737164  79.6862848   9.0649918  52.8738633  80.9289346   6.8850635
  53.6679232  80.4339667   6.6833210  52.1630326  80.4007210   6.5218341
  57.6933478  83.3107442  11.2363003  57.7470500  83.8798378  12.0040719
  56.8248259  83.4809327  10.8717040  49.1821397  75.0732428   2.9610388
  48.2518985  75.0116884   3.1780350  49.2778869  74.5508381   2.1647029
  49.1006946  71.5987241   5.5488630  49.3613763  72.5132574   5.4397790
  49.9224118  71.1311684   5.6985243  50.5731871  73.0124998  12.7187454
  51.2454925  72.8042360  12.0700103  49.7461658  72.8147084  12.2792687
  64.8221132  79.7529049  12.2362788  65.0157023  80.6574859  12.4822063
  64.7221751  79.2936468  13.0701373  56.4757443  69.6386939  14.7353115
  55.8285358  70.3376889  14.6417592  57.2458459  70.0723083  15.1029363
  59.8836241  79.9035791  17.8103668  59.7321748  79.6746343  16.8933752
  59.8740921  80.8606393  17.8235013  56.6521578  77.4767704  12.7949935
  57.5813638  77.6278864  12.6218902  56.2312608  77.5651725  11.9398581
  55.4509909  81.5018368  10.5648472  55.3120995  81.1337153  11.4374411
  54.6624506  82.0166008  10.3932430  56.0458061  86.6027465   1.9074009
  56.2209817  86.1315508   2.7219632  55.3590849  87.2293231   2.1355270
  57.0015124  80.8799971   7.9537310  56.6664957  80.8400741   8.8494960
  56.5019070  80.2144687   7.4807721  50.9759368  76.2867601  13.4789891
  50.8379166  75.5547840  14.0801430  51.8864292  76.1976501  13.1974079
  59.9374316  78.2256006  -1.7725630  59.3203487  77.5002834  -1.8692577
  59.4690805  78.9865366  -2.1158556  53.6041669  75.9987561  12.9673571
  54.3141288  75.3580753  12.9260190  53.5610977  76.2500455  13.8899752
  61.5928448  82.9354914  15.8880150  61.5340994  82.2514134  15.2210733
  61.9947966  83.6773904  15.4360776  52.3170603  72.9852778  14.7869211
  51.7807960  72.5343517  15.4390807  51.7287312  73.1198687  14.0439675
  50.6119147  89.7516828   8.6813869  50.8515745  90.3835352   9.3592888
  49.7688343  89.4004868   8.9679228  51.7272862  72.4441430  -2.6504326
  50.8502328  72.3230231  -3.0142079  52.2030615  71.6527508  -2.9025437
  61.5945855  80.8994498  14.1194130  60.7072634  80.5620420  14.2420529
  62.1644406  80.1677529  14.3562895  43.2475002  77.2318590   7.4437181
  43.9346042  76.9180320   6.8558197  43.0923131  78.1359954   7.1704433
  48.0509724  72.1208786  11.8722205  47.9667913  71.5134456  11.1372615
  47.2292431  72.6117804  11.8731701  55.1247008  85.5595950  11.0855373
  55.0517180  86.3650922  11.5974678  54.6824402  85.7587916  10.2603395
  54.9136788  84.7967720   4.5958195  54.1304310  85.3389400   4.6896419
  55.6129533  85.3141700   4.9952436  58.2233438  70.6062350   7.2392400
  58.7202138  69.8532312   6.9193470  57.4520420  70.6426666   6.6735609
  66.0763196  76.3102715   8.8810692  66.0653072  77.1927431   8.5104625
  65.2080575  75.9574266   8.6865229  57.5845692  85.4582784  13.2413532
  58.2973664  86.0930249  13.1689433  57.0935721  85.5546650  12.4253534
  59.3063219  79.3634037   4.8130824  58.3719498  79.4835499   4.6435528
  59.4839887  78.4606504   4.5490833  54.8068407  72.7479733   6.9664085
  54.4366194  72.1950773   7.6544990  55.3027499  72.1437866   6.4139085
  62.6935770  75.2051356   5.3480858  63.1596222  76.0379348   5.2741160
  63.1443271  74.7396338   6.0526116  52.6357606  83.2077228  14.0619103
  53.3367065  83.8413711  14.2148497  52.1652721  83.5491959  13.3014742
  60.7612001  81.5495177   2.3467010  61.0371845  81.4351772   3.2560884
  59.8916500  81.1512662   2.3079183  60.6652433  67.5731943   9.3871759
  59.7515513  67.8036170   9.5553966  61.0945534  67.6570387  10.2385791
  60.4358891  75.7621835  11.8871653  59.7830342  76.0097743  11.2324106
  60.8139271  74.9485973  11.5534130  57.3966065  85.7981528   5.9899823
  57.5788460  84.9803184   6.4527576  58.2199051  86.0149221   5.5524713
  57.7308231  84.7249713   3.2514872  58.2595997  84.2142168   2.6385034
  57.9936450  84.4092244   4.1160405  56.4846464  76.5041646  18.3737690
  55.8087102  76.4035775  19.0440065  57.3074098  76.3480860  18.8373687
  48.2325324  82.7413583  10.9950205  48.8178760  81.9957271  11.1278110
  48.0350162  83.0517539  11.8786869  51.0863979  85.7764830   6.0112648
  50.4174354  86.2610958   5.5276688  50.9476848  86.0234051   6.9256026
  42.8242978  75.3119183   9.7154648  42.8627078  74.7782774  10.5091767
  42.3183271  74.7854388   9.0965626  55.2269247  87.8108574  12.6095306
  55.7787555  87.9740195  13.3744391  55.5675441  88.4013011  11.9375331
  50.2033741  70.1583723  13.2117191  50.2675067  71.0198554  12.7994588
  50.1400861  69.5457725  12.4789549  49.6786013  72.2306856  16.8590225
  50.3058052  71.8483933  17.4727749  48.8213932  72.0121058  17.2245918
  60.0780122  82.6369831  18.4643961  60.6220026  83.2499789  17.9698915
  59.4966967  83.1949410  18.9810974  46.4551556  74.0383285   2.7908580
  46.7504997  73.1293963   2.7375634  45.5539592  74.0171025   2.4689582
  58.3637635  85.7590549   9.5958988  58.2388774  84.9580289   9.0869934
  59.0216726  86.2536743   9.1072958  49.9845803  72.1139282   8.7736128
  49.2632389  72.7275249   8.6343602  50.7739059  72.6497046   8.6952774
  60.4272543  83.5599569  11.2238538  59.4802879  83.4404920  11.1516865
  60.7755316  82.6722067  11.3064800  52.7872116  69.4493708  15.0476780
  53.3106518  69.6956005  15.8103090  52.5684450  70.2813743  14.6279918
  48.1839397  71.7197383   2.9147905  47.8552104  70.8394762   2.7323011
  48.5378768  71.6645051   3.8024294  57.4318976  83.3552285   7.4242891
  57.2843939  82.4268993   7.6050461  58.2572470  83.3772376   6.9399966
  51.2981221  72.0070353   3.2823383  51.6377293  72.5356274   2.5601991
  51.7453341  72.3450759   4.0581949  61.0353098  84.1780844   8.5107763
  61.9599646  83.9723706   8.3732214  60.8668402  83.9297245   9.4197105
  53.9924661  70.3907403  12.7326451  53.6521482  69.5915216  13.1347131
  53.2863668  70.6909114  12.1603284  54.6441133  67.4756716  11.1853774
  55.4667203  67.0017194  11.0632664  54.8879197  68.2547199  11.6852460
  53.2849368  70.5044974   1.4816675  54.0057730  70.8826227   0.9780392
  52.6614672  71.2233851   1.5851653  57.4280491  71.2090123   2.4175008
  57.6444105  72.0914761   2.1163836  56.9474558  70.8176336   1.6880650
  52.1679712  74.1675836   8.9945752  52.0224293  74.4816139   9.8870034
  51.6904916  74.7860737   8.4416651  54.0276095  71.1578384   9.0426642
  54.0137664  70.2619478   8.7058940  54.7448523  71.1649048   9.6764928
  55.8802226  71.5915724  11.0879769  55.6220003  72.5132795  11.0864100
  55.3487266  71.1946159  11.7780234  60.8248414  84.6966512   3.8669855
  60.9985292  84.1312934   3.1143707  61.3177306  85.4967407   3.6849345
  46.6425374  76.7081181  11.9333414  46.0978842  77.4840989  12.0653688
  47.5204724  77.0551985  11.7752535  53.4312991  70.0392765   4.3114212
  53.5528902  69.1109411   4.5105100  53.1415033  70.0531451   3.3992528
  56.3004181  67.7247675   7.4480932  56.3225878  67.7887008   6.4932911
  56.7172240  66.8852184   7.6421438  66.6787806  77.4602935   5.4860155
  67.1218952  76.7110260   5.0879278  65.8014316  77.4513071   5.1033886
  61.8123587  84.0133276   0.9666753  62.5074492  84.6339969   1.1854068
  62.1546737  83.1628627   1.2419131  47.4291396  75.8351077  14.8263570
  46.6873132  75.9833712  15.4128201  47.1084140  76.0959343  13.9630320
  63.7115010  81.4632982   2.4954084  64.2366334  81.8020254   1.7703404
  63.6237363  80.5279997   2.3117218  55.3735059  85.3767055  14.6243960
  55.6822185  85.1316202  15.4966660  56.1710541  85.5813694  14.1362831
  55.3955671  87.5304965   6.8549337  54.9560661  87.0381344   7.5482194
  56.1463788  86.9877932   6.6141412  47.8748010  83.7216506   6.8573965
  48.7006030  83.4220278   6.4772609  47.5242062  82.9524128   7.3063754
  52.8429543  83.0742974   8.9271639  52.2209552  82.4113679   8.6273867
  53.5134410  83.1004106   8.2445286  46.0756615  81.6402832   7.8162899
  45.2388523  81.2125007   7.6346900  46.0480260  81.8335275   8.7533690
  52.9154070  71.5524762  18.5204145  52.9642226  72.4286885  18.1381914
  53.4576585  71.0102155  17.9475788  63.4008916  82.0965885  17.8005282
  62.6104460  82.0790024  17.2609781  63.1642271  82.6354179  18.5554318
  63.5206791  78.9458352  15.1138010  63.5704796  78.7808359  16.0553533
  63.4120714  78.0785611  14.7235891  52.4043050  81.6246897   2.4030099
  52.5531170  82.3082362   1.7496772  53.2109493  81.6051987   2.9179555
  60.8110554  74.9289280  16.4297317  61.7120416  74.7895744  16.1381315
  60.8858528  75.0943734  17.3695494  55.1453359  72.3056134  15.2750503
  54.2756668  72.5989700  15.0033092  55.3812839  72.8896579  15.9957767
  65.0224988  81.3655293  15.3580032  64.7309796  81.7285274  16.1943493
  64.4097119  80.6522301  15.1793364  66.2220670  78.9308173   7.8782602
  67.0567562  79.3697977   8.0420162  66.3579799  78.4546826   7.0590848
  63.2712176  76.4887908  13.8260090  63.7466298  76.6815554  13.0178941
  62.3477742  76.5447094  13.5803473  50.1595683  77.6512075   3.4091168
  49.9141725  76.7474405   3.6071378  50.3291597  77.6529225   2.4670646
  57.8492393  68.5235751  12.7915924  58.3674337  69.2596778  12.4662412
  57.4947525  68.8299745  13.6262683  49.4291330  73.3840432   0.9077330
  48.7360575  73.4584787   0.2517366  49.1843082  72.6200776   1.4298846
  58.1004987  64.9436034   8.3116820  58.3806741  64.2759223   8.9377247
  58.8855594  65.1365129   7.7991484  55.9038455  84.1195028  -0.1258153
  55.3312422  84.7385215  -0.5787682  56.4771249  84.6694389   0.4081769
  61.9713845  73.3653668  12.0588395  62.9231268  73.4651765  12.0800619
  61.8017296  72.5731936  12.5686480  59.9928225  70.4509251  12.2447796
  59.3978157  70.7314264  11.5494285  59.7077921  70.9403152  13.0164537
  59.1235715  84.4032178   1.0050429  60.0566388  84.3377740   1.2083304
  59.0358928  85.2388445   0.5464962  64.4501923  76.5859787  11.1730695
  64.4178243  75.6475788  11.3590379  65.0602547  76.6643824  10.4396520
  56.2885254  75.4555840  -2.7842101  57.2344359  75.3262049  -2.7153683
  55.9099499  74.7170502  -2.3072673  64.5996411  73.3770831  11.2188978
  64.0835460  72.5929288  11.0318907  65.4836360  73.0489548  11.3835498
  62.2607138  67.1211846   7.1784791  62.0631960  66.8126935   8.0628123
  62.8706844  67.8473485   7.3082721  70.2678473  77.6475794  10.3136732
  70.9981861  77.3861082  10.8744435  69.6585418  76.9104516  10.3538800
  68.3493770  75.7883657  10.9111183  67.6226934  75.6539622  10.3027675
  67.9341057  76.0960486  11.7167901  56.1723946  79.5073587  18.6758556
  57.0926956  79.6852186  18.8698603  56.1373529  78.5629632  18.5238255
  54.4728171  73.3805817  -2.8487216  53.5659626  73.0838930  -2.7724502
  54.7504152  73.0835635  -3.7152929  45.3906111  74.7012180   7.6011831
  45.0708896  73.8477488   7.3086205  44.8439540  74.9160758   8.3569798
  49.1686019  77.4174621  11.3181337  49.3872029  78.3491729  11.3369371
  49.5811793  77.0582596  12.1036141  56.0890237  67.9242707   3.3057026
  55.2790965  67.5789792   3.6812272  56.7774654  67.6150250   3.8944637
  58.0180785  67.0020753   4.9281322  58.5711824  67.4216207   5.5871345
  58.2550871  66.0756501   4.9704278  54.0413884  72.9907827  20.7084086
  53.9410611  73.9402184  20.6396177  53.8235426  72.6626066  19.8360156
  53.2426956  70.2392752  -2.7075236  54.1046120  70.5647650  -2.4479419
  53.4277300  69.4524248  -3.2202171  45.2594371  78.3215092   9.5704952
  44.5657843  77.9069045   9.0574907  46.0067362  78.3635628   8.9738371
  61.3959592  69.1121279   4.4359987  60.8158261  69.7706083   4.0538039
  61.1295525  68.2898623   4.0247404  59.8463158  68.5126336   6.6381307
  60.3462937  68.6242871   5.8295626  60.4898766  68.2087389   7.2782115
  53.9045154  76.4204966  19.5249148  53.4212236  77.2205326  19.7313037
  53.9906093  76.4312911  18.5716592  47.1731114  78.2533346   7.4470967
  47.1501802  78.3521033   6.4952850  47.4831750  79.0998496   7.7688133
  49.8318492  80.3109501  11.5617582  50.7861745  80.2793443  11.4947513
  49.6331015  79.8500124  12.3767808  50.4217874  78.8810617  14.1288379
  51.2410763  79.3754695  14.1523217  50.6954682  77.9642585  14.1005947
  60.1784470  71.2721369   3.4916335  59.2910325  71.5571020   3.2736530
  60.5938459  71.1115132   2.6443612  63.5299006  71.2967890   7.2070674
  64.3059396  71.7864342   7.4795291  62.8047140  71.7225944   7.6642544
  65.9671565  72.0095509   8.2644615  66.5616056  71.7691245   7.5537923
  66.0398149  71.2902640   8.8918151  48.1868721  85.8529120   8.5787780
  48.0523188  85.0929521   8.0125778  47.7700783  86.5770020   8.1116568
  59.3227684  81.0366044  -2.4135645  60.0263534  81.2416046  -1.7977990
  58.5990332  81.6042805  -2.1486562  60.1525494  76.7875905   3.7066625
  60.0960695  77.2444456   2.8674257  60.7053836  76.0266589   3.5289468
  63.9630300  72.5765637   4.5316744  63.7067234  72.1762272   5.3624952
  63.3383168  73.2909431   4.4066884  68.2742638  75.3161710   7.0388036
  67.7142196  75.3854899   7.8119598  67.6686141  75.1402695   6.3187532
  51.3437846  86.7498437   8.7906222  51.2270231  87.6943870   8.6884912
  50.5230293  86.4471999   9.1792021  61.2314381  81.4748573  -0.3637185
  62.0659985  81.0429771  -0.5459710  61.0698724  81.3030586   0.5639709
  60.8860273  77.9780686   1.0019154  60.8309077  77.8124958   0.0607598
  60.2606328  78.6856719   1.1581344  45.6752788  73.2148750  14.8280576
  46.3211652  72.7047704  15.3167802  45.4669939  73.9517432  15.4024002
  58.2006180  80.2829598  20.3272717  59.0697340  80.4570250  19.9659352
  57.7212932  81.1024015  20.2048446  54.1956399  67.4788795   0.5804473
  54.1835068  68.4230635   0.7372743  55.0879820  67.2958941   0.2863934
  52.3692361  87.4026699  12.0062151  53.2719607  87.4350309  12.3228646
  52.1429731  86.4727150  12.0208486  54.1245963  86.1557686   8.6672229
  53.1741594  86.1559547   8.5536601  54.4278449  85.4090420   8.1508264
  58.0108518  64.0731572   4.8350409  57.2440914  63.5190058   4.9807092
  58.4219223  64.1453440   5.6964561  50.0150279  70.3616368  18.9255591
  50.8781741  70.0053172  19.1358915  49.4415690  70.0230262  19.6130995
  69.8598656  91.9918224   9.7317992  70.4977066  91.8724971   9.0281332
  69.7419499  92.9399068   9.7905944  66.6688362  91.9445652   9.6679516
  66.3306874  91.8286717   8.7800051  67.5378131  91.5436817   9.6480522
  67.1508145  93.0980504  15.6265722  67.1396786  92.7033302  14.7546225
  67.3128785  92.3646576  16.2199493  60.0739610  95.2932320   8.4960628
  60.8660902  94.9523145   8.0806927  60.3136260  95.4027295   9.4162781
  63.8715406  95.8817616  14.5744906  63.5805272  96.7863246  14.4591572
  64.5072391  95.9234143  15.2888975  64.7971613  93.2594464  11.1646265
  65.3935186  93.0350486  10.4503228  64.8546585  92.5179210  11.7671713
  69.4139925  89.7169678   6.8071200  70.2003014  89.2989101   6.4561617
  69.6778629  90.6215770   6.9752848  72.3373772  83.3666485  12.1698787
  72.0057097  84.2361896  11.9460002  71.7419385  83.0502769  12.8492817
  68.8305292  95.5679031  11.5694699  68.5306015  96.4704070  11.4610507
  68.4856351  95.3011214  12.4215852  62.2817773  92.0192828   7.6031404
  61.3568270  91.8869042   7.8109096  62.5302186  92.7987047   8.1001346
  72.2302435  88.0861571   9.2492137  71.3219313  88.0176980   8.9550898
  72.1790031  88.5633516  10.0773962  59.6426584  91.6626101   8.4375193
  59.7718965  91.9160580   9.3514605  58.9624035  92.2553809   8.1179848
  66.3043301  89.5051217  17.1927034  65.5276635  90.0645137  17.1829899
  66.9433864  89.9908000  17.7141904  74.0964082  86.2878010  11.0270011
  73.4538462  86.5810543  10.3809805  73.5919010  86.1730930  11.8323207
  64.5589673  92.3136670  16.7545001  65.3004358  92.8521714  16.4779825
  63.8526659  92.9402959  16.9116553  70.0345013  94.4565811  15.3517163
  70.4428369  94.0148221  14.6071795  69.3122275  93.8818438  15.6051355
  66.3876083  89.3938417  12.7250720  67.2337278  89.8177831  12.8685369
  66.3274721  88.7372042  13.4189283  69.5375528  87.0542786  14.3831893
  69.2936460  87.8084846  13.8466169  69.8135459  87.4328133  15.2179140
  71.4913991  93.5981398  13.0609159  71.7030886  94.2413158  12.3843540
  71.4443739  92.7643715  12.5931089  69.0940220  86.2099219   9.9645731
  68.2324699  86.5080472  10.2562468  69.1202655  86.4269618   9.0326764
  62.8025871  94.3012891   9.3099300  63.3727228  94.7300159   8.6716784
  63.3933983  94.0195476  10.0083485  63.2951037  89.4676318  17.5560311
  62.6649698  90.1492599  17.7895708  63.1887125  89.3559400  16.6113449
  58.5896010  89.1348114   8.4826235  57.7995064  89.3905643   8.0066346
  59.0807257  89.9496452   8.5878276  60.5410755  89.4992694   5.4409712
  59.7441918  89.6111388   5.9593208  60.3136347  89.8379346   4.5750602
  66.3716423  96.0237397  13.3892227  66.4360855  96.4857804  14.2250398
  65.6627347  95.3934762  13.5174536  56.8733713  89.3878605  10.9141226
  57.1241751  90.2725615  11.1798802  57.4093261  89.2083206  10.1416318
  62.5731780  83.7697084  19.9185562  62.1798725  83.2163283  20.5933206
  63.3897920  84.0807663  20.3092080  65.4899741  85.1854963  17.5105819
  66.2309454  85.7862116  17.4310281  65.7217664  84.4432601  16.9523861
  60.6341079  90.3711331  15.7884048  60.5194594  89.4696588  16.0891147
  59.7785597  90.6175027  15.4368865  67.7132917  98.3129071  17.3871549
  67.2696771  97.5265449  17.0692453  68.3750130  98.5008221  16.7215440
  62.4720038  99.8424872  11.9132228  63.0227463  99.7141936  11.1409221
  61.6331514 100.1419761  11.5627120  69.8114155  98.5931871  15.4152950
  69.7932630  99.4140752  14.9233219  70.7334075  98.4685946  15.6403091
  66.2687209  96.1076000  16.2576459  66.8015546  95.3464288  16.0275767
  65.7401290  95.8149652  17.0000613  69.4356904  81.2136066  11.7870100
  69.0921173  82.1037708  11.7109211  69.8035866  81.0237724  10.9239685
  57.5042754  93.5369597   4.6058703  58.3417976  93.9466605   4.3892410
  57.6821022  92.5969039   4.5758896  66.9854298  86.0494378   5.3527774
  66.1295894  85.6601229   5.1733413  67.3981249  86.1286339   4.4927559
  68.5153444  83.5840721   9.7519334  68.0118240  83.5470857   8.9387139
  68.8084051  84.4933464   9.8115990  64.7596330  83.6679451   8.7585515
  65.6249327  83.4722260   8.3991405  64.8273839  83.4389803   9.6854872
  62.3658649  85.8981659   6.1301882  62.9402401  85.6756841   5.3975075
  62.9529632  85.9670354   6.8830483  64.6681317  82.7722908   4.8576952
  64.0145729  82.4571925   4.2333566  64.6261791  82.1498648   5.5836775
  67.9019057  89.2604841   9.1824599  66.9841619  89.4819788   9.0246287
  68.3179201  89.3351152   8.3236307  71.2344569  80.4729625   6.8887838
  71.5403446  79.6126989   6.6013753  71.9597174  81.0647246   6.6886832
  57.5268926  90.8760312   5.2769436  57.3293325  90.2829673   4.5520503
  56.9715590  90.5712522   5.9945375  65.5065649  90.7683418   7.3964029
  65.5614259  89.8157255   7.3206506  64.6956851  90.9242858   7.8805328
  63.4458009  89.3860478   5.1554408  62.6325875  89.6854649   5.5619600
  63.9417003  88.9916167   5.8728890  69.0432221  89.8502303  13.9869302
  69.3981609  90.0773776  14.8463768  69.6904352  90.1820679  13.3646557
  62.9372084  86.9578834  10.7715643  63.5771463  86.8167593  10.0738606
  62.1049614  86.6713347  10.3954245  68.5327232  98.6399360  11.2363003
  68.5864255  99.2090296  12.0040719  67.6642014  98.8101245  10.8717040
  59.9400700  86.9279159   5.5488630  60.2007518  87.8424492   5.4397790
  60.7617873  86.4603601   5.6985243  61.4125626  88.3416916  12.7187454
  62.0848679  88.1334278  12.0700103  60.5855412  88.1439002  12.2792687
  67.3151198  84.9678857  14.7353115  66.6679113  85.6668806  14.6417592
  68.0852213  85.4015001  15.1029363  70.7229996  95.2327709  17.8103668
  70.5715502  95.0038261  16.8933752  70.7134675  96.1898310  17.8235013
  67.4915332  92.8059622  12.7949935  68.4207392  92.9570781  12.6218902
  67.0706362  92.8943643  11.9398581  66.2903664  96.8310286  10.5648472
  66.1514750  96.4629071  11.4374411  65.5018260  97.3457926  10.3932430
  61.8153123  91.6159519  13.4789891  61.6772921  90.8839758  14.0801430
  62.7258046  91.5268419  13.1974079  64.4435424  91.3279478  12.9673571
  65.1535042  90.6872670  12.9260190  64.4004732  91.5792373  13.8899752
  72.4322202  98.2646832  15.8880150  72.3734748  97.5806052  15.2210733
  72.8341721  99.0065822  15.4360776  63.1564358  88.3144696  14.7869211
  62.6201715  87.8635435  15.4390807  62.5681066  88.4490605  14.0439675
  72.4339610  96.2286415  14.1194130  71.5466388  95.8912337  14.2420529
  73.0038161  95.4969447  14.3562895  54.0868757  92.5610507   7.4437181
  54.7739797  92.2472237   6.8558197  53.9316885  93.4651872   7.1704433
  58.8903479  87.4500704  11.8722205  58.8061668  86.8426373  11.1372615
  58.0686185  87.9409722  11.8731701  69.0627193  85.9354267   7.2392400
  69.5595892  85.1824230   6.9193470  68.2914174  85.9718584   6.6735609
  68.4239446 100.7874702  13.2413532  69.1367419 101.4222167  13.1689433
  67.9329475 100.8838568  12.4253534  65.6462161  88.0771650   6.9664085
  65.2759949  87.5242691   7.6544990  66.1421254  87.4729784   6.4139085
  63.4751360  98.5369145  14.0619103  64.1760819  99.1705628  14.2148497
  63.0046475  98.8783877  13.3014742  71.5046187  82.9023861   9.3871759
  70.5909267  83.1328088   9.5553966  71.9339289  82.9862305  10.2385791
  71.2752646  91.0913753  11.8871653  70.6224096  91.3389660  11.2324106
  71.6533026  90.2777891  11.5534130  67.3240219  91.8333564  18.3737690
  66.6480856  91.7327693  19.0440065  68.1467853  91.6772778  18.8373687
  59.0719078  98.0705500  10.9950205  59.6572515  97.3249188  11.1278110
  58.8743917  98.3809457  11.8786869  53.6636733  90.6411101   9.7154648
  53.7020832  90.1074691  10.5091767  53.1577026  90.1146306   9.0965626
  61.0427495  85.4875641  13.2117191  61.1068822  86.3490472  12.7994588
  60.9794615  84.8749643  12.4789549  60.5179768  87.5598774  16.8590225
  61.1451806  87.1775851  17.4727749  59.6607686  87.3412976  17.2245918
  70.9173876  97.9661749  18.4643961  71.4613780  98.5791707  17.9698915
  70.3360721  98.5241327  18.9810974  57.2945310  89.3675203   2.7908580
  57.5898751  88.4585881   2.7375634  56.3933346  89.3462942   2.4689582
  60.8239557  87.4431199   8.7736128  60.1026143  88.0567167   8.6343602
  61.6132813  87.9788964   8.6952774  63.6265871  84.7785626  15.0476780
  64.1500273  85.0247922  15.8103090  63.4078204  85.6105661  14.6279918
  59.0233152  87.0489300   2.9147905  58.6945858  86.1686679   2.7323011
  59.3772523  86.9936969   3.8024294  62.1374975  87.3362270   3.2823383
  62.4771048  87.8648191   2.5601991  62.5847096  87.6742676   4.0581949
  64.8318416  85.7199321  12.7326451  64.4915236  84.9207134  13.1347131
  64.1257422  86.0201032  12.1603284  65.4834888  82.8048633  11.1853774
  66.3060957  82.3309112  11.0632664  65.7272951  83.5839117  11.6852460
  63.0073467  89.4967754   8.9945752  62.8618047  89.8108057   9.8870034
  62.5298670  90.1152654   8.4416651  64.8669849  86.4870302   9.0426642
  64.8531418  85.5911395   8.7058940  65.5842278  86.4940966   9.6764928
  66.7195980  86.9207642  11.0879769  66.4613758  87.8424713  11.0864100
  66.1881020  86.5238077  11.7780234  57.4819129  92.0373098  11.9333414
  56.9372597  92.8132906  12.0653688  58.3598479  92.3843903  11.7752535
  64.2706745  85.3684682   4.3114212  64.3922657  84.4401328   4.5105100
  63.9808788  85.3823368   3.3992528  67.1397936  83.0539593   7.4480932
  67.1619633  83.1178926   6.4932911  67.5565995  82.2144101   7.6421438
  58.2685151  91.1642995  14.8263570  57.5266887  91.3125630  15.4128201
  57.9477895  91.4251260  13.9630320  66.2128813 100.7058973  14.6243960
  66.5215940 100.4608120  15.4966660  67.0104295 100.9105611  14.1362831
  56.9150369  96.9694750   7.8162899  56.0782278  96.5416924   7.6346900
  56.8874015  97.1627193   8.7533690  63.7547825  86.8816680  18.5204145
  63.8035980  87.7578802  18.1381914  64.2970339  86.3394073  17.9475788
  74.2402671  97.4257803  17.8005282  73.4498214  97.4081942  17.2609781
  74.0036025  97.9646097  18.5554318  74.3600546  94.2750269  15.1138010
  74.4098551  94.1100277  16.0553533  74.2514469  93.4077528  14.7235891
  71.6504308  90.2581197  16.4297317  72.5514171  90.1187662  16.1381315
  71.7252283  90.4235652  17.3695494  65.9847113  87.6348052  15.2750503
  65.1150423  87.9281618  15.0033092  66.2206594  88.2188497  15.9957767
  75.8618742  96.6947211  15.3580032  75.5703551  97.0577191  16.1943493
  75.2490874  95.9814219  15.1793364  74.1105931  91.8179825  13.8260090
  74.5860052  92.0107472  13.0178941  73.1871496  91.8739011  13.5803473
  68.6886147  83.8527669  12.7915924  69.2068091  84.5888696  12.4662412
  68.3341280  84.1591662  13.6262683  68.9398741  80.2727951   8.3116820
  69.2200495  79.6051141   8.9377247  69.7249348  80.4657047   7.7991484
  72.8107600  88.6945585  12.0588395  73.7625023  88.7943683  12.0800619
  72.6411050  87.9023854  12.5686480  70.8321979  85.7801169  12.2447796
  70.2371911  86.0606181  11.5494285  70.5471676  86.2695070  13.0164537
  75.2895677  91.9151705  11.1730695  75.2571998  90.9767706  11.3590379
  75.8996301  91.9935742  10.4396520  75.4390166  88.7062749  11.2188978
  74.9229215  87.9221205  11.0318907  76.3230114  88.3781465  11.3835498
  73.1000893  82.4503764   7.1784791  72.9025714  82.1418852   8.0628123
  73.7100598  83.1765403   7.3082721  67.0117701  94.8365504  18.6758556
  67.9320710  95.0144103  18.8698603  66.9767284  93.8921550  18.5238255
  56.2299866  90.0304098   7.6011831  55.9102650  89.1769406   7.3086205
  55.6833294  90.2452676   8.3569798  60.0079773  92.7466539  11.3181337
  60.2265783  93.6783647  11.3369371  60.4205547  92.3874513  12.1036141
  66.9283991  83.2534624   3.3057026  66.1184720  82.9081709   3.6812272
  67.6168408  82.9442168   3.8944637  68.8574539  82.3312671   4.9281322
  69.4105578  82.7508124   5.5871345  69.0944626  81.4048419   4.9704278
  64.8807639  88.3199745  20.7084086  64.7804366  89.2694102  20.6396177
  64.6629181  87.9917984  19.8360156  56.0988126  93.6507009   9.5704952
  55.4051597  93.2360962   9.0574907  56.8461117  93.6927546   8.9738371
  70.6856913  83.8418254   6.6381307  71.1856691  83.9534788   5.8295626
  71.3292521  83.5379307   7.2782115  64.7438909  91.7496884  19.5249148
  64.2605990  92.5497244  19.7313037  64.8299848  91.7604828  18.5716592
  58.0124868  93.5825263   7.4470967  57.9895556  93.6812950   6.4952850
  58.3225505  94.4290414   7.7688133  60.6712246  95.6401418  11.5617582
  61.6255500  95.6085361  11.4947513  60.4724770  95.1792042  12.3767808
  61.2611628  94.2102534  14.1288379  62.0804517  94.7046613  14.1523217
  61.5348436  93.2934502  14.1005947  74.3692761  86.6259808   7.2070674
  75.1453151  87.1156260   7.4795291  73.6440895  87.0517862   7.6642544
  56.5146543  88.5440668  14.8280576  57.1605406  88.0339622  15.3167802
  56.3063694  89.2809350  15.4024002  69.0399935  95.6121516  20.3272717
  69.9091094  95.7862168  19.9659352  68.5606686  96.4315932  20.2048446
  63.2086115 102.7318617  12.0062151  64.1113362 102.7642227  12.3228646
  62.9823485 101.8019068  12.0208486  68.8502273  79.4023489   4.8350409
  68.0834668  78.8481976   4.9807092  69.2612978  79.4745358   5.6964561
  60.8544034  85.6908285  18.9255591  61.7175495  85.3345090  19.1358915
  60.2809444  85.3522180  19.6130995  73.4125534  99.0989002  19.9185562
  73.0192480  98.5455200  20.5933206  74.2291675  99.4099580  20.3092080
  76.3293495 100.5146881  17.5105819  77.0703209 101.1154034  17.4310281
  76.5611418  99.7724519  16.9523861  71.3573522 102.8890691  16.8590225
  71.9845561 102.5067769  17.4727749  70.5001441 102.6704893  17.2245918
  74.5941579 102.2108597  18.5204145  74.6429735 103.0870720  18.1381914
  75.1364094 101.6685990  17.9475788  75.7201393 103.6491662  20.7084086
  75.6198120 104.5986019  20.6396177  75.5022935 103.3209901  19.8360156
  67.3540297 103.8732586  14.8280576  67.9999161 103.3631540  15.3167802
  67.1457448 104.6101267  15.4024002  71.6937788 101.0200203  18.9255591
  72.5569250 100.6637008  19.1358915  71.1203199 100.6814098  19.6130995
  46.0345409  44.6607358   4.1116856  45.5909263  43.8743737   3.7937760
  46.6962623  44.8486509   3.4460746  48.1326647  44.9410158   2.1398257
  48.1145122  45.7619039   1.6478526  49.0546567  44.8164233   2.3648398
  49.0442488  41.5805996   4.5348975  48.8927994  41.3516548   3.6179059
  49.0347167  42.5376598   4.5480320  50.7534695  44.6125119   2.6125457
  50.6947241  43.9284339   1.9456040  51.1554213  45.3544109   2.1606083
  49.2386368  44.3140036   5.1889267  49.7826272  44.9269994   4.6944222
  48.6573213  44.8719614   5.7056280  52.5615163  43.7736090   4.5250588
  51.7710707  43.7560229   3.9855088  52.3248517  44.3124384   5.2799625
  54.1831235  43.0425498   2.0825338  53.8916043  43.4055479   2.9188799
  53.5703366  42.3292506   1.9038671  47.3612427  41.9599803   7.0518024
  48.2303587  42.1340455   6.6904658  46.8819179  42.7794220   6.9293753
  59.0204903  53.6688429  -3.5436702  59.6583313  53.5495176  -4.2473362
  58.9025746  54.6169273  -3.4848750  55.8294609  53.6215857  -3.6075177
  55.4913121  53.5056922  -4.4954642  56.6984377  53.2207022  -3.6274171
  56.3114392  54.7750709   2.3511028  56.3003033  54.3803507   1.4791532
  56.4735032  54.0416781   2.9444800  49.2345857  56.9702525  -4.7794066
  50.0267149  56.6293350  -5.1947766  49.4742507  57.0797500  -3.8591912
  53.0321653  57.5587820   1.2990212  52.7411519  58.4633451   1.1836879
  53.6678638  57.6004348   2.0134282  53.9577860  54.9364669  -2.1108428
  54.5541432  54.7120691  -2.8251465  54.0152832  54.1949414  -1.5082980
  63.9754598  51.3315116  -5.5650515  64.7079770  50.7614333  -5.3312686
  63.2193954  50.9436716  -5.1244010  61.4980019  45.0436690  -1.1055907
  61.1663344  45.9132101  -1.3294692  60.9025632  44.7272974  -0.4261876
  57.9911538  57.2449236  -1.7059994  57.6912261  58.1474275  -1.8144187
  57.6462598  56.9781419  -0.8538841  61.3908682  49.7631776  -4.0262557
  60.4825559  49.6947185  -4.3203796  61.3396278  50.2403721  -3.1980731
  52.9732318  64.0093556  -8.7389026  52.8956348  64.9601381  -8.6600546
  52.3693962  63.6639429  -8.0814100  55.4649548  51.1821422   3.9172341
  54.6882882  51.7415342   3.9075205  56.1040111  51.6678205   4.4387211
  63.2570329  47.9648215  -2.2484683  62.6144709  48.2580748  -2.8944888
  62.7525257  47.8501135  -1.4431486  53.7195920  53.9906875   3.4790308
  54.4610605  54.5291919   3.2025131  53.0132906  54.6173164   3.6361860
  59.1951260  56.1336016   2.0762469  59.6034616  55.6918426   1.3317102
  58.4728521  55.5588643   2.3296662  55.5482330  51.0708622  -0.5503974
  56.3943525  51.4948036  -0.4069325  55.4880968  50.4142247   0.1434589
  59.5180074  56.6937206  -4.1685242  58.8888937  56.8582920  -4.8709174
  59.1305737  57.1078816  -3.3974278  63.3969306  57.6291644  -6.8140878
  62.7120345  58.0090545  -7.3643845  63.4813156  58.2386971  -6.0808930
  58.6981775  48.7312991   1.1077200  58.4542707  49.4855051   0.5711475
  58.9741706  49.1098338   1.9424447  60.6520238  55.2751603  -0.2145535
  60.8637133  55.9183363  -0.8911154  60.6049986  54.4413920  -0.6823605
  55.0708036  56.4311614  -6.9035157  55.5346382  56.7099317  -7.6930534
  54.8064834  55.5295059  -7.0862066  51.9632117  55.9783096  -3.9655394
  52.5333475  56.4070364  -4.6037909  52.5540229  55.6965681  -3.2671208
  52.4557284  51.1446523   4.2805618  51.8255945  51.8262804   4.5141015
  52.3493372  51.0329605   3.3358756  61.7666066  58.1523558  -2.0423177
  62.5883510  57.7503746  -2.3240496  61.7628469  58.0491793  -1.0907061
  55.5322669  57.7007602   0.1137533  55.5967102  58.1628009   0.9495705
  54.8233593  57.0704967   0.2419843  69.8572059  54.4962307  -5.6938206
  69.1035767  53.9269705  -5.8494201  69.9919600  54.4624971  -4.7467571
  51.7338027  45.4467289   6.6430869  51.3404972  44.8933488   7.3178513
  52.5504167  45.7577868   7.0337386  50.5094969  60.0016904  -7.3632808
  50.6861597  60.9234868  -7.5511824  51.3051803  59.6875323  -6.9338428
  54.6505988  46.8625168   4.2351125  55.3915701  47.4632321   4.1555588
  54.8823911  46.1202806   3.6769168  49.7947326  52.0481535   2.5129355
  49.6800841  51.1466793   2.8136454  48.9391843  52.2945232   2.1614172
  56.8739163  59.9899276   4.1116856  56.4303018  59.2035654   3.7937760
  57.5356377  60.1778426   3.4460746  51.6326285  61.5195077  -1.3622466
  52.1833710  61.3912141  -2.1345472  50.7937761  61.8189966  -1.7127573
  58.9720401  60.2702076   2.1398257  58.9538877  61.0910957   1.6478526
  59.8940322  60.1456151   2.3648398  55.4293456  57.7846205   2.9821765
  55.9621792  57.0234493   2.7521073  54.9007537  57.4919857   3.7245920
  61.7739014  55.1081218  -4.3892376  61.1162689  55.7980480  -4.3012248
  62.5779414  55.4977650  -4.0458390  60.5844473  53.4625591  -6.3388435
  61.0976355  54.0955583  -5.8366725  61.2345697  52.8626786  -6.7045075
  57.0625304  50.9375046  -4.0930094  56.1447865  51.1589993  -4.2508406
  57.4785448  51.0121357  -4.9518387  61.3506269  58.4431592  -8.2109292
  60.8968596  57.6022502  -8.1544102  60.7200236  59.0792991  -7.8734512
  59.7939209  60.2808089  -7.2759474  60.0862183  60.8413146  -7.9947108
  60.3037829  60.5736650  -6.5206315  54.7572834  61.0588440  -6.1866021
  54.7149013  61.2849286  -7.1157489  55.6735533  60.8251815  -6.0380220
  58.2038468  51.5272508   0.7114609  58.5587855  51.7543981   1.5709074
  58.8510599  51.8590884   0.0891864  63.9336205  54.6490943  -8.5836062
  63.7954103  54.8392539  -9.5114873  63.5772423  55.4110326  -8.1268011
  63.9605584  56.7167471  -3.5724791  64.3942091  56.6242760  -2.7241737
  64.6737165  56.6924971  -4.2104775  52.8738635  57.9351469  -6.3904058
  53.6679233  57.4401789  -6.5921483  52.1630327  57.4069332  -6.7536352
  57.6933479  60.3169565  -2.0391690  57.7470501  60.8860501  -1.2713974
  56.8248260  60.4871450  -2.4037653  50.5731872  50.0187121  -0.5567239
  51.2454926  49.8104483  -1.2054590  49.7461659  49.8209207  -0.9962007
  64.8221134  56.7591171  -1.0391906  65.0157024  57.6636982  -0.7932631
  64.7221752  56.2998590  -0.2053321  56.4757444  46.6449062   1.4598422
  55.8285359  47.3439011   1.3662898  57.2458460  47.0785206   1.8274670
  59.8836242  56.9097914   4.5348975  59.7321749  56.6808466   3.6179059
  59.8740922  57.8668515   4.5480320  56.6521579  54.4829827  -0.4804759
  57.5813639  54.6340986  -0.6535791  56.2312609  54.5713847  -1.3356112
  55.4509911  58.5080491  -2.7106221  55.3120996  58.1399275  -1.8380283
  54.6624507  59.0228130  -2.8822263  56.0458063  63.6089588 -11.3680684
  56.2209818  63.1377631 -10.5535062  55.3590851  64.2355354 -11.1399424
  57.0015126  57.8862094  -5.3217383  56.6664958  57.8462864  -4.4259733
  56.5019071  57.2206810  -5.7946973  50.9759370  53.2929724   0.2035198
  50.8379168  52.5609963   0.8046737  51.8864293  53.2038624  -0.0780614
  53.6041670  53.0049683  -0.3081122  54.3141289  52.3642875  -0.3494504
  53.5610979  53.2562578   0.6145058  61.5928449  59.9417036   2.6125457
  61.5340995  59.2576257   1.9456040  61.9947967  60.6836026   2.1606083
  52.3170604  49.9914901   1.5114517  51.7807961  49.5405639   2.1636114
  51.7287313  50.1260810   0.7684982  50.6119148  66.7578950  -4.5940824
  50.8515746  67.3897474  -3.9161806  49.7688344  66.4066990  -4.3075465
  61.5945856  57.9056620   0.8439437  60.7072635  57.5682542   0.9665835
  62.1644407  57.1739652   1.0808202  55.1247010  62.5658073  -2.1899320
  55.0517181  63.3713044  -1.6780016  54.6824403  62.7650039  -3.0151299
  54.9136789  61.8029843  -8.6796499  54.1304311  62.3451523  -8.5858274
  55.6129535  62.3203822  -8.2802257  66.0763197  53.3164838  -4.3944002
  66.0653073  54.1989553  -4.7650069  65.2080576  52.9636389  -4.5889465
  57.5845693  62.4644907  -0.0341162  58.2973665  63.0992372  -0.1065260
  57.0935722  62.5608773  -0.8501160  59.3063220  56.3696159  -8.4623870
  58.3719499  56.4897622  -8.6319166  59.4839889  55.4668626  -8.7263860
  62.6935771  52.2113479  -7.9273836  63.1596224  53.0441470  -8.0013533
  63.1443272  51.7458460  -7.2228577  52.6357607  60.2139350   0.7864409
  53.3367066  60.8475833   0.9393804  52.1652722  60.5554082   0.0260049
  60.4358893  52.7683958  -1.3883040  59.7830343  53.0159865  -2.0430588
  60.8139273  51.9548096  -1.7220563  57.3966067  62.8043651  -7.2854870
  57.5788461  61.9865307  -6.8227118  58.2199053  63.0211343  -7.7229980
  57.7308232  61.7311836 -10.0239822  58.2595999  61.2204291 -10.6369659
  57.9936452  61.4154366  -9.1594289  56.4846466  53.5103769   5.0982997
  55.8087103  53.4097898   5.7685372  57.3074100  53.3542982   5.5618994
  48.2325325  59.7475705  -2.2804488  48.8178762  59.0019393  -2.1476584
  48.0350163  60.0579662  -1.3967824  51.0863980  62.7826953  -7.2642046
  50.4174355  63.2673080  -7.7478006  50.9476850  63.0296173  -6.3498667
  55.2269249  64.8170696  -0.6659387  55.7787557  64.9802318   0.0989698
  55.5675442  65.4075134  -1.3379362  49.6786014  49.2368979   3.5835532
  50.3058053  48.8546056   4.1973056  48.8213933  49.0183180   3.9491224
  60.0780123  59.6431954   5.1889267  60.6220027  60.2561912   4.6944222
  59.4966968  60.2011532   5.7056280  58.3637636  62.7652672  -3.6795705
  58.2388775  61.9642412  -4.1884760  59.0216727  63.2598865  -4.1681735
  60.4272544  60.5661692  -2.0516155  59.4802880  60.4467043  -2.1237828
  60.7755317  59.6784190  -1.9689894  52.7872118  46.4555831   1.7722087
  53.3106519  46.7018127   2.5348396  52.5684451  47.2875866   1.3525224
  57.4318978  60.3614408  -5.8511803  57.2843940  59.4331115  -5.6704233
  58.2572471  60.3834499  -6.3354728  61.0353099  61.1842967  -4.7646930
  61.9599647  60.9785828  -4.9022479  60.8668403  60.9359368  -3.8557589
  53.9924663  47.3969526  -0.5428243  53.6521483  46.5977339  -0.1407563
  53.2863669  47.6971237  -1.1151409  55.8802227  48.5977847  -2.1874924
  55.6220005  49.5194918  -2.1890594  55.3487267  48.2008282  -1.4974460
  60.8248416  61.7028634  -9.4084839  60.9985293  61.1375057 -10.1610986
  61.3177307  62.5029529  -9.5905349  46.6425375  53.7143303  -1.3421280
  46.0978844  54.4903111  -1.2101005  47.5204725  54.0614108  -1.5002158
  66.6787807  54.4665057  -7.7894539  67.1218953  53.7172382  -8.1875416
  65.8014317  54.4575194  -8.1720807  61.8123588  61.0195399 -12.3087940
  62.5074493  61.6402091 -12.0900626  62.1546738  60.1690750 -12.0335562
  47.4291397  52.8413200   1.5508877  46.6873133  52.9895835   2.1373507
  47.1084142  53.1021465   0.6875626  63.7115011  58.4695104 -10.7800610
  64.2366335  58.8082377 -11.5051290  63.6237364  57.5342119 -10.9637475
  55.3735060  62.3829178   1.3489267  55.6822186  62.1378325   2.2211967
  56.1710542  62.5875816   0.8608137  55.3955672  64.5367087  -6.4205356
  54.9560662  64.0443466  -5.7272500  56.1463789  63.9940055  -6.6613281
  47.8748011  60.7278628  -6.4180728  48.7006031  60.4282400  -6.7982085
  47.5242063  59.9586251  -5.9690940  52.8429544  60.0805097  -4.3483055
  52.2209553  59.4175802  -4.6480827  53.5134411  60.1066228  -5.0309407
  52.9154072  48.5586885   5.2449451  52.9642227  49.4349007   4.8627221
  53.4576586  48.0164278   4.6721095  63.4008917  59.1028008   4.5250588
  62.6104461  59.0852147   3.9855088  63.1642272  59.6416301   5.2799625
  63.5206792  55.9520474   1.8383317  63.5704797  55.7870482   2.7798840
  63.4120716  55.0847733   1.4481198  60.8110555  51.9351402   3.1542624
  61.7120418  51.7957867   2.8626621  60.8858529  52.1005857   4.0940801
  55.1453360  49.3118257   1.9995810  54.2756669  49.6051823   1.7278399
  55.3812840  49.8958702   2.7203074  65.0224989  58.3717416   2.0825338
  64.7309798  58.7347396   2.9188799  64.4097120  57.6584424   1.9038671
  66.2220672  55.9370295  -5.3972091  67.0567563  56.3760100  -5.2334531
  66.3579800  55.4608949  -6.2163846  63.2712177  53.4950030   0.5505396
  63.7466299  53.6877677  -0.2575752  62.3477743  53.5509216   0.3048780
  57.8492394  45.5297874  -0.4838770  58.3674338  46.2658901  -0.8092281
  57.4947527  45.8361867   0.3507989  61.9713846  50.3715790  -1.2166298
  62.9231269  50.4713888  -1.1954074  61.8017297  49.5794059  -0.7068214
  59.9928226  47.4571374  -1.0306897  59.3978158  47.7376386  -1.7260408
  59.7077923  47.9465275  -0.2590156  64.4501924  53.5921910  -2.1023998
  64.4178244  52.6537911  -1.9164314  65.0602548  53.6705947  -2.8358173
  64.5996413  50.3832954  -2.0565715  64.0835461  49.5991410  -2.2435786
  65.4836361  50.0551670  -1.8919196  70.2678474  54.6537917  -2.9617961
  70.9981863  54.3923205  -2.4010258  69.6585420  53.9166639  -2.9215894
  68.3493771  52.7945780  -2.3643510  67.6226935  52.6601744  -2.9727019
  67.9341058  53.1022608  -1.5586792  56.1723948  56.5135709   5.4003863
  57.0926957  56.6914308   5.5943909  56.1373531  55.5691755   5.2483562
  49.1686020  54.4236744  -1.9573356  49.3872030  55.3553852  -1.9385322
  49.5811794  54.0644718  -1.1718552  54.0413885  49.9969950   7.4329393
  53.9410612  50.9464307   7.3641484  53.8235428  49.6688189   6.5605463
  53.9045156  53.4267088   6.2494454  53.4212237  54.2267449   6.4558344
  53.9906095  53.4375033   5.2961898  49.8318493  57.3171623  -1.7137112
  50.7861747  57.2855565  -1.7807180  49.6331017  56.8562247  -0.8986886
  50.4217875  55.8872739   0.8533686  51.2410764  56.3816818   0.8768523
  50.6954683  54.9704707   0.8251253  63.5299008  48.3030012  -6.0684019
  64.3059398  48.7926465  -5.7959402  62.8047142  48.7288067  -5.6112150
  65.9671566  49.0157632  -5.0110079  66.5616057  48.7753368  -5.7216770
  66.0398150  48.2964762  -4.3836542  48.1868722  62.8591243  -4.6966914
  48.0523190  62.0991644  -5.2628916  47.7700784  63.5832143  -5.1638125
  68.2742639  52.3223833  -6.2366657  67.7142197  52.3917022  -5.4635095
  67.6686142  52.1464817  -6.9567161  51.3437848  63.7560560  -4.4848471
  51.2270232  64.7005992  -4.5869781  50.5230294  63.4534121  -4.0962672
  45.6752789  50.2210873   1.5525883  46.3211653  49.7109827   2.0413108
  45.4669941  50.9579555   2.1269308  58.2006182  57.2891721   7.0518024
  59.0697341  57.4632373   6.6904658  57.7212933  58.1086137   6.9293753
  52.3692362  64.4088822  -1.2692543  53.2719609  64.4412432  -0.9526048
  52.1429732  63.4789273  -1.2546207  54.1245964  63.1619808  -4.6082464
  53.1741595  63.1621670  -4.7218092  54.4278450  62.4152543  -5.1246430
  50.0150280  47.3678490   5.6500897  50.8781742  47.0115295   5.8604222
  49.4415691  47.0292385   6.3376301  69.8598657  68.9980346  -3.5436702
  70.4977067  68.8787094  -4.2473362  69.7419500  69.9461190  -3.4848750
  66.6688364  68.9507775  -3.6075177  66.3306875  68.8348839  -4.4954642
  67.5378132  68.5498940  -3.6274171  67.1508147  70.1042626   2.3511028
  67.1396787  69.7095425   1.4791532  67.3128786  69.3708699   2.9444800
  60.0739611  72.2994443  -4.7794066  60.8660903  71.9585267  -5.1947766
  60.3136261  72.4089418  -3.8591912  63.8715408  72.8879738   1.2990212
  63.5805274  73.7925369   1.1836879  64.5072392  72.9296266   2.0134282
  64.7971615  70.2656587  -2.1108428  65.3935187  70.0412609  -2.8251465
  64.8546586  69.5241332  -1.5082980  69.4139926  66.7231800  -6.4683494
  70.2003015  66.3051224  -6.8193077  69.6778630  67.6277893  -6.3001845
  72.3373773  60.3728608  -1.1055907  72.0057098  61.2424019  -1.3294692
  71.7419387  60.0564892  -0.4261876  68.8305293  72.5741154  -1.7059994
  68.5306016  73.4766192  -1.8144187  68.4856352  72.3073337  -0.8538841
  62.2817774  69.0254950  -5.6723289  61.3568271  68.8931165  -5.4645598
  62.5302188  69.8049170  -5.1753347  72.2302437  65.0923694  -4.0262557
  71.3219314  65.0239102  -4.3203796  72.1790032  65.5695639  -3.1980731
  59.6426585  68.6688224  -4.8379500  59.7718967  68.9222703  -3.9240089
  58.9624037  69.2615932  -5.1574845  66.3043302  66.5113339   3.9172341
  65.5276636  67.0707260   3.9075205  66.9433865  66.9970122   4.4387211
  74.0964083  63.2940132  -2.2484683  73.4538463  63.5872665  -2.8944888
  73.5919012  63.1793053  -1.4431486  64.5589675  69.3198793   3.4790308
  65.3004359  69.8583837   3.2025131  63.8526660  69.9465082   3.6361860
  70.0345014  71.4627933   2.0762469  70.4428370  71.0210344   1.3317102
  69.3122276  70.8880561   2.3296662  66.3876084  66.4000540  -0.5503974
  67.2337280  66.8239954  -0.4069325  66.3274722  65.7434164   0.1434589
  69.5375530  64.0604908   1.1077200  69.2936462  64.8146969   0.5711475
  69.8135460  64.4390256   1.9424447  71.4913992  70.6043521  -0.2145535
  71.7030888  71.2475281  -0.8911154  71.4443741  69.7705837  -0.6823605
  69.0940221  63.2161341  -3.3108962  68.2324700  63.5142595  -3.0192225
  69.1202656  63.4331740  -4.2427930  62.8025872  71.3075013  -3.9655394
  63.3727229  71.7362282  -4.6037909  63.3933984  71.0257598  -3.2671208
  63.2951038  66.4738441   4.2805618  62.6649699  67.1554722   4.5141015
  63.1887126  66.3621523   3.3358756  58.5896011  66.1410237  -4.7928458
  57.7995065  66.3967766  -5.2688347  59.0807258  66.9558575  -4.6876418
  60.5410756  66.5054816  -7.8344981  59.7441920  66.6173510  -7.3161486
  60.3136348  66.8441468  -8.7004091  66.3716424  73.0299519   0.1137533
  66.4360856  73.4919927   0.9495705  65.6627348  72.3996884   0.2419843
  56.8733714  66.3940727  -2.3613467  57.1241752  67.2787737  -2.0955891
  57.4093262  66.2145329  -3.1338375  62.5731781  60.7759207   6.6430869
  62.1798727  60.2225405   7.3178513  63.3897921  61.0869785   7.0337386
  65.4899742  62.1917086   4.2351125  66.2309456  62.7924239   4.1555588
  65.7217665  61.4494724   3.6769168  60.6341080  67.3773453   2.5129355
  60.5194595  66.4758710   2.8136454  59.7785598  67.6237150   2.1614172
  67.7132918  75.3191193   4.1116856  67.2696772  74.5327572   3.7937760
  68.3750131  75.5070344   3.4460746  62.4720039  76.8486995  -1.3622466
  63.0227464  76.7204058  -2.1345472  61.6331515  77.1481884  -1.7127573
  69.8114156  75.5993993   2.1398257  69.7932631  76.4202874   1.6478526
  70.7334076  75.4748069   2.3648398  66.2687210  73.1138123   2.9821765
  66.8015547  72.3526411   2.7521073  65.7401291  72.8211775   3.7245920
  69.4356905  58.2198189  -1.4884593  69.0921174  59.1099831  -1.5645482
  69.8035868  58.0299846  -2.3515008  57.5042756  70.5431719  -8.6695991
  58.3417978  70.9528728  -8.8862283  57.6821023  69.6031161  -8.6995797
  66.9854299  63.0556501  -7.9226920  66.1295895  62.6663351  -8.1021281
  67.3981251  63.1348462  -8.7827134  68.5153445  60.5902844  -3.5235360
  68.0118241  60.5532979  -4.3367554  68.8084052  61.4995587  -3.4638703
  64.7596331  60.6741574  -4.5169178  65.6249328  60.4784382  -4.8763289
  64.8273840  60.4451925  -3.5899821  62.3658650  62.9043782  -7.1452811
  62.9402402  62.6818963  -7.8779618  62.9529633  62.9732476  -6.3924210
  64.6681318  59.7785031  -8.4177742  64.0145731  59.4634048  -9.0421127
  64.6261792  59.1560771  -7.6917919  67.9019059  66.2666964  -4.0930094
  66.9841620  66.4881911  -4.2508406  68.3179202  66.3413275  -4.9518387
  71.2344571  57.4791748  -6.3866855  71.5403448  56.6189111  -6.6740940
  71.9597176  58.0709368  -6.5867861  57.5268927  67.8822435  -7.9985257
  57.3293327  67.2891795  -8.7234191  56.9715591  67.5774645  -7.2809319
  65.5065651  67.7745541  -5.8790664  65.5614260  66.8219377  -5.9548188
  64.6956853  67.9304980  -5.3949366  63.4458010  66.3922601  -8.1200285
  62.6325876  66.6916771  -7.7135093  63.9417005  65.9978290  -7.4025803
  69.0432222  66.8564425   0.7114609  69.3981610  67.0835898   1.5709074
  69.6904353  67.1882802   0.0891864  62.9372085  63.9640956  -2.5039050
  63.5771465  63.8229715  -3.2016087  62.1049616  63.6775470  -2.8800448
  68.5327234  75.6461482  -2.0391690  68.5864256  76.2152419  -1.2713974
  67.6642015  75.8163367  -2.4037653  59.9400702  63.9341281  -7.7266064
  60.2007519  64.8486615  -7.8356903  60.7617874  63.4665724  -7.5769451
  61.4125627  65.3479039  -0.5567239  62.0848680  65.1396401  -1.2054590
  60.5855413  65.1501124  -0.9962007  67.3151199  61.9740979   1.4598422
  66.6679114  62.6730929   1.3662898  68.0852214  62.4077123   1.8274670
  70.7229997  72.2389832   4.5348975  70.5715503  72.0100383   3.6179059
  70.7134676  73.1960433   4.5480320  67.4915333  69.8121744  -0.4804759
  68.4207393  69.9632904  -0.6535791  67.0706363  69.9005765  -1.3356112
  66.2903665  73.8372409  -2.7106221  66.1514751  73.4691193  -1.8380283
  65.5018261  74.3520048  -2.8822263  61.8153124  68.6221641   0.2035198
  61.6772922  67.8901880   0.8046737  62.7258048  68.5330542  -0.0780614
  64.4435425  68.3341601  -0.3081122  65.1535043  67.6934793  -0.3494504
  64.4004733  68.5854496   0.6145058  72.4322204  75.2708954   2.6125457
  72.3734750  74.5868174   1.9456040  72.8341722  76.0127944   2.1606083
  63.1564359  65.3206819   1.5114517  62.6201716  64.8697557   2.1636114
  62.5681067  65.4552728   0.7684982  72.4339611  73.2348538   0.8439437
  71.5466390  72.8974460   0.9665835  73.0038162  72.5031569   1.0808202
  54.0868758  69.5672630  -5.8317512  54.7739798  69.2534360  -6.4196497
  53.9316887  70.4713994  -6.1050261  58.8903480  64.4562826  -1.4032488
  58.8061669  63.8488496  -2.1382078  58.0686186  64.9471845  -1.4022992
  69.0627194  62.9416390  -6.0362293  69.5595893  62.1886352  -6.3561223
  68.2914175  62.9780707  -6.6019084  68.4239448  77.7936824  -0.0341162
  69.1367420  78.4284289  -0.1065260  67.9329476  77.8900690  -0.8501160
  65.6462163  65.0833773  -6.3090609  65.2759950  64.5304813  -5.6209703
  66.1421255  64.4791906  -6.8615609  63.4751361  75.5431268   0.7864409
  64.1760821  76.1767751   0.9393804  63.0046476  75.8845999   0.0260049
  71.5046189  59.9085983  -3.8882934  70.5909269  60.1390210  -3.7200727
  71.9339290  59.9924427  -3.0368902  71.2752647  68.0975875  -1.3883040
  70.6224097  68.3451783  -2.0430588  71.6533027  67.2840014  -1.7220563
  67.3240220  68.8395686   5.0982997  66.6480857  68.7389816   5.7685372
  68.1467854  68.6834900   5.5618994  59.0719079  75.0767623  -2.2804488
  59.6572516  74.3311311  -2.1476584  58.8743918  75.3871580  -1.3967824
  53.6636734  67.6473223  -3.5600045  53.7020834  67.1136814  -2.7662927
  53.1577027  67.1208429  -4.1789068  61.0427496  62.4937764  -0.0637503
  61.1068823  63.3552595  -0.4760105  60.9794617  61.8811765  -0.7965144
  60.5179769  64.5660896   3.5835532  61.1451808  64.1837974   4.1973056
  59.6607688  64.3475098   3.9491224  70.9173877  74.9723871   5.1889267
  71.4613781  75.5853830   4.6944222  70.3360722  75.5303450   5.7056280
  57.2945312  66.3737325 -10.4846114  57.5898753  65.4648004 -10.5379060
  56.3933347  66.3525065 -10.8065111  60.8239559  64.4493322  -4.5018565
  60.1026144  65.0629290  -4.6411092  61.6132814  64.9851087  -4.5801919
  63.6265872  61.7847748   1.7722087  64.1500274  62.0310045   2.5348396
  63.4078205  62.6167783   1.3525224  59.0233153  64.0551423 -10.3606788
  58.6945859  63.1748802 -10.5431682  59.3772524  63.9999092  -9.4730399
  62.1374976  64.3424393  -9.9931311  62.4771049  64.8710314 -10.7152702
  62.5847097  64.6804799  -9.2172744  64.8318417  62.7261444  -0.5428243
  64.4915238  61.9269257  -0.1407563  64.1257423  63.0263154  -1.1151409
  65.4834889  59.8110756  -2.0900920  66.3060958  59.3371234  -2.2122029
  65.7272953  60.5901240  -1.5902233  63.0073468  66.5029877  -4.2808941
  62.8618048  66.8170180  -3.3884659  62.5298671  67.1214777  -4.8338042
  64.8669851  63.4932425  -4.2328051  64.8531419  62.5973518  -4.5695753
  65.5842279  63.5003088  -3.5989765  66.7195981  63.9269765  -2.1874924
  66.4613759  64.8486835  -2.1890594  66.1881022  63.5300199  -1.4974460
  57.4819130  69.0435221  -1.3421280  56.9372598  69.8195029  -1.2101005
  58.3598480  69.3906025  -1.5002158  64.2706747  62.3746805  -8.9640481
  64.3922658  61.4463451  -8.7649594  63.9808789  62.3885491  -9.8762166
  67.1397937  60.0601715  -5.8273761  67.1619634  60.1241048  -6.7821782
  67.5565996  59.2206224  -5.6333255  58.2685152  68.1705117   1.5508877
  57.5266888  68.3187753   2.1373507  57.9477896  68.4313383   0.6875626
  66.2128814  77.7121095   1.3489267  66.5215941  77.4670242   2.2211967
  67.0104296  77.9167734   0.8608137  56.9150371  73.9756872  -5.4591795
  56.0782279  73.5479047  -5.6407793  56.8874016  74.1689316  -4.5221004
  63.7547826  63.8878802   5.2449451  63.8035982  64.7640925   4.8627221
  64.2970340  63.3456195   4.6721095  74.2402672  74.4319925   4.5250588
  73.4498216  74.4144064   3.9855088  74.0036026  74.9708219   5.2799625
  74.3600547  71.2812392   1.8383317  74.4098552  71.1162399   2.7798840
  74.2514470  70.4139651   1.4481198  71.6504309  67.2643320   3.1542624
  72.5514172  67.1249785   2.8626621  71.7252284  67.4297775   4.0940801
  65.9847115  64.6410175   1.9995810  65.1150424  64.9343741   1.7278399
  66.2206595  65.2250620   2.7203074  75.8618744  73.7009333   2.0825338
  75.5703552  74.0639314   2.9188799  75.2490875  72.9876342   1.9038671
  74.1105932  68.8241948   0.5505396  74.5860054  69.0169594  -0.2575752
  73.1871497  68.8801134   0.3048780  68.6886148  60.8589792  -0.4838770
  69.2068092  61.5950818  -0.8092281  68.3341281  61.1653785   0.3507989
  68.9398743  57.2790074  -4.9637873  69.2200496  56.6113263  -4.3377447
  69.7249350  57.4719170  -5.4763209  72.8107601  65.7007708  -1.2166298
  73.7625024  65.8005806  -1.1954074  72.6411051  64.9085977  -0.7068214
  70.8321980  62.7863291  -1.0306897  70.2371913  63.0668304  -1.7260408
  70.5471677  63.2757192  -0.2590156  75.2895679  68.9213828  -2.1023998
  75.2571999  67.9829828  -1.9164314  75.8996302  68.9997864  -2.8358173
  75.4390167  65.7124871  -2.0565715  74.9229216  64.9283328  -2.2435786
  76.3230116  65.3843588  -1.8919196  73.1000894  59.4565887  -6.0969902
  72.9025715  59.1480975  -5.2126570  73.7100600  60.1827526  -5.9671973
  67.0117702  71.8427627   5.4003863  67.9320712  72.0206226   5.5943909
  66.9767285  70.8983672   5.2483562  56.2299867  67.0366221  -5.6742863
  55.9102651  66.1831529  -5.9668489  55.6833295  67.2514799  -4.9184895
  60.0079775  69.7528662  -1.9573356  60.2265784  70.6845769  -1.9385322
  60.4205548  69.3936636  -1.1718552  66.9283992  60.2596747  -9.9697668
  66.1184721  59.9143832  -9.5942422  67.6168409  59.9504291  -9.3810056
  68.8574541  59.3374794  -8.3473371  69.4105579  59.7570247  -7.6883348
  69.0944627  58.4110542  -8.3050415  64.8807640  65.3261867   7.4329393
  64.7804367  66.2756224   7.3641484  64.6629182  64.9980106   6.5605463
  56.0988127  70.6569132  -3.7049741  55.4051599  70.2423085  -4.2179787
  56.8461118  70.6989669  -4.3016322  70.6856914  60.8480377  -6.6373386
  71.1856693  60.9596911  -7.4459068  71.3292522  60.5441429  -5.9972578
  64.7438910  68.7559006   6.2494454  64.2605992  69.5559366   6.4558344
  64.8299849  68.7666951   5.2961898  58.0124870  70.5887386  -5.8283726
  57.9895558  70.6875073  -6.7801843  58.3225506  71.4352537  -5.5066560
  60.6712248  72.6463541  -1.7137112  61.6255501  72.6147483  -1.7807180
  60.4724771  72.1854165  -0.8986886  61.2611630  71.2164657   0.8533686
  62.0804519  71.7108736   0.8768523  61.5348437  70.2996625   0.8251253
  74.3692762  63.6321930  -6.0684019  75.1453152  64.1218383  -5.7959402
  73.6440896  64.0579984  -5.6112150  56.5146544  65.5502791   1.5525883
  57.1605407  65.0401745   2.0413108  56.3063695  66.2871472   2.1269308
  69.0399936  72.6183638   7.0518024  69.9091096  72.7924291   6.6904658
  68.5606688  73.4378055   6.9293753  63.2086116  79.7380739  -1.2692543
  64.1113363  79.7704350  -0.9526048  62.9823486  78.8081190  -1.2546207
  68.8502274  56.4085612  -8.4404284  68.0834670  55.8544099  -8.2947602
  69.2612979  56.4807481  -7.5790132  60.8544035  62.6970408   5.6500897
  61.7175496  62.3407213   5.8604222  60.2809446  62.3584303   6.3376301
  73.4125536  76.1051124   6.6430869  73.0192481  75.5517323   7.3178513
  74.2291676  76.4161703   7.0337386  76.3293497  77.5209004   4.2351125
  77.0703210  78.1216157   4.1555588  76.5611419  76.7786641   3.6769168
  71.3573523  79.8952814   3.5835532  71.9845562  79.5129891   4.1973056
  70.5001442  79.6767016   3.9491224  74.5941581  79.2170720   5.2449451
  74.6429736  80.0932843   4.8627221  75.1364095  78.6748113   4.6721095
  75.7201394  80.6553785   7.4329393  75.6198121  81.6048142   7.3641484
  75.5022937  80.3272024   6.5605463  67.3540298  80.8794708   1.5525883
  67.9999162  80.3693662   2.0413108  67.1457449  81.6163390   2.1269308
  71.6937789  78.0262325   5.6500897  72.5569251  77.6699130   5.8604222
  71.1203200  77.6876220   6.3376301  67.7132919  52.3253316  -9.1637838
  67.2696773  51.5389695  -9.4816933  68.3750133  52.5132467  -9.8293947
  69.8114157  52.6056116 -11.1356436  69.7932633  53.4264997 -11.6276167
  70.7334077  52.4810191 -10.9106295  70.7229998  49.2451954  -8.7405718
  70.5715505  49.0162506  -9.6575635  70.7134678  50.2022556  -8.7274373
  72.4322205  52.2771077 -10.6629236  72.3734751  51.5930297 -11.3298653
  72.8341723  53.0190067 -11.1148610  70.9173879  51.9785994  -8.0865426
  71.4613783  52.5915952  -8.5810471  70.3360724  52.5365572  -7.5698413
  74.2402673  51.4382048  -8.7504105  73.4498217  51.4206187  -9.2899606
  74.0036028  51.9770342  -7.9955068  75.8618745  50.7071456 -11.1929355
  75.5703553  51.0701437 -10.3565894  75.2490876  49.9938464 -11.3716023
  69.0399937  49.6245761  -6.2236670  69.9091097  49.7986413  -6.5850035
  68.5606689  50.4440178  -6.3460940  73.4125537  53.1113247  -6.6323825
  73.0192482  52.5579446  -5.9576180  74.2291677  53.4223826  -6.2417307
  76.3293498  54.5271126  -9.0403568  77.0703211  55.1278279  -9.1199106
  76.5611421  53.7848764  -9.5985525  71.3573525  56.9014936  -9.6919162
  71.9845563  56.5192014  -9.0781637  70.5001443  56.6829138  -9.3263469
  74.5941582  56.2232842  -8.0305242  74.6429737  57.0994965  -8.4127472
  75.1364096  55.6810236  -8.6033599  75.7201396  57.6615908  -5.8425301
  75.6198123  58.6110265  -5.9113209  75.5022938  57.3334146  -6.7149230
  67.3540300  57.8856831 -11.7228810  67.9999163  57.3755785 -11.2341585
  67.1457451  58.6225513 -11.1485385  71.6937791  55.0324448  -7.6253796
  72.5569252  54.6761253  -7.4150472  71.1203201  54.6938343  -6.9378392
   4.8209527 100.4838064  47.4080565   4.0673235  99.9145462  47.2524569
   4.9557068 100.4500728  48.3551199   1.6425275 100.4540814  45.3124232
   2.0856421  99.7048139  44.9143355   0.7651785 100.4450950  44.9297963
   1.1858140 101.9246052  47.7046679   2.0205031 102.3635856  47.8684239
   1.3217268 101.4484705  46.8854925   5.2315942 100.6413674  50.1400809
   5.9619331 100.3798962  50.7008512   4.6222888  99.9042395  50.1802877
   3.3131239  98.7821536  50.7375260   2.5864403  98.6477501  50.1291752
   2.8978526  99.0898365  51.5431978   0.9309034  95.0033388  48.0908692
   1.5253525  94.7629124  47.3802000   1.0035618  94.2840519  48.7182228
   3.2380107  98.3099589  46.8652113   2.6779665  98.3792778  47.6383675
   2.6323610  98.1340574  46.1451609   4.3994373 104.2073945  51.6134177
   4.0558643 105.0975587  51.5373288   4.7673336 104.0175603  50.7503762
   6.1982039 103.4667505  46.7151915   6.5040916 102.6064868  46.4277830
   6.9234644 104.0585125  46.5150909   6.4683657 105.8961740  49.2135836
   5.5546737 106.1265967  49.3818043   6.8976758 105.9800184  50.0649868
   3.9036211 103.2665831  48.1380897   4.1837964 102.5989020  48.7641324
   4.6886818 103.4594926  47.6255561   8.0638362 105.4441643  47.0048868
   7.8663183 105.1356732  47.8892200   8.6738068 106.1703282  47.1346798
   3.8212009 105.3250550  44.7545399   4.3743047 105.7446004  45.4135422
   4.0582095 104.3986298  44.7968355   3.8139742 102.3961369  44.6614486
   3.0472138 101.8419855  44.8071169   4.2250447 102.4683237  45.5228638
   4.8209528  77.4900186  34.1325871   4.0673237  76.9207584  33.9769876
   4.9557069  77.4562851  35.0796506   1.6425276  77.4602936  32.0369538
   2.0856422  76.7110262  31.6388661   0.7651786  77.4513073  31.6543270
   1.1858141  78.9308175  34.4291986   2.0205032  79.3697979  34.5929546
   1.3217270  78.4546828  33.6100231   5.2315943  77.6475796  36.8646116
   5.9619332  77.3861084  37.4253819   4.6222889  76.9104518  36.9048183
   3.3131240  75.7883659  37.4620567   2.5864404  75.6539624  36.8537058
   2.8978527  76.0960487  38.2677285   0.9309035  72.0095511  34.8153998
   1.5253526  71.7691247  34.1047307   1.0035619  71.2902641  35.4427535
   3.2380108  75.3161712  33.5897420   2.6779666  75.3854901  34.3628982
   2.6323612  75.1402696  32.8696916   4.8236127  91.9918226  36.2827375
   5.4614537  91.8724973  35.5790715   4.7056970  92.9399070  36.3415327
   1.6325833  91.9445654  36.2188900   1.2944344  91.8286718  35.3309435
   2.5015601  91.5436819  36.1989906   2.1145616  93.0980506  42.1775105
   2.1034257  92.7033304  41.3055609   2.2766255  92.3646578  42.7708877
   4.3777395  89.7169680  33.3580583   5.1640484  89.2989103  33.0071000
   4.6416099  90.6215772  33.5262232   9.7785822  89.6544913  34.2613562
  10.5110994  89.0844130  34.4951391   9.0225178  89.2666513  34.7020067
   1.3961942  92.0772154  31.4576904   1.0320149  91.5502775  32.1689826
   2.2529058  91.6870623  31.2843390   7.3011243  83.3666487  38.7208170
   6.9694567  84.2361898  38.4969385   6.7056856  83.0502771  39.4002201
   3.7942762  95.5679033  38.1204083   3.4943485  96.4704072  38.0119890
   3.4493822  95.3011216  38.9725236   7.1939906  88.0861573  35.8001520
   6.2856783  88.0176981  35.5060281   7.1427502  88.5633518  36.6283346
   1.2680772  89.5051219  43.7436418   0.4914106  90.0645139  43.7339282
   1.9071335  89.9908002  44.2651288   9.0601552  86.2878011  37.5779394
   8.4175933  86.5810545  36.9319189   8.5556481  86.1730932  38.3832591
   6.7141716  90.0341185  28.2665254   7.6259572  90.2668571  28.0912951
   6.2051363  90.6178229  27.7040332   4.9982484  94.4565812  41.9026546
   5.4065840  94.0148223  41.1581179   4.2759745  93.8818440  42.1560739
   1.3513554  89.3938419  39.2760103   2.1974749  89.8177833  39.4194752
   1.2912191  88.7372044  39.9698666   5.3211298  95.0167003  35.6578835
   4.6920161  95.1812717  34.9554903   4.9336960  95.4308613  36.4289799
   9.2000530  95.9521441  33.0123199   8.5151568  96.3320342  32.4620232
   9.2844379  96.5616768  33.7455147   4.5012999  87.0542788  40.9341277
   4.2573931  87.8084848  40.3975552   4.7772930  87.4328135  41.7688524
   6.4551462  93.5981400  39.6118542   6.6668357  94.2413160  38.9352923
   6.4081210  92.7643716  39.1440472   4.0577691  86.2099221  36.5155115
   3.1962170  86.5080474  36.8071852   4.0840125  86.4269619  35.5836147
   0.8739260  94.7541411  32.9228920   1.3377606  95.0329114  32.1333543
   0.6096058  93.8524856  32.7402011   7.5697290  96.4753355  37.7840900
   8.3914733  96.0733543  37.5023581   7.5659693  96.3721590  38.7357016
   1.3353893  96.0237399  39.9401610   1.3998326  96.4857806  40.7759782
   0.6264817  95.3934764  40.0683920  15.6603283  92.8192104  34.1325871
  14.9066991  92.2499502  33.9769876  15.7950824  92.7854768  35.0796506
   2.6770387  98.3129073  43.9380933   2.2334241  97.5265451  43.6201837
   3.3387601  98.5008223  43.2724823   4.7751625  98.5931873  41.9662334
   4.7570101  99.4140754  41.4742603   5.6971545  98.4685948  42.1912475
   1.2324679  96.1076002  42.8085842   1.7653016  95.3464290  42.5785150
   0.7038761  95.8149654  43.5509997   4.3994374  81.2136068  38.3379484
   4.0558644  82.1037710  38.2618595   4.7673337  81.0237726  37.4749069
   4.3644657  91.2044679  26.8451919   3.8491281  91.9749284  27.0840307
   4.0921966  90.5309815  27.4684981   1.9491768  86.0494380  31.9037158
   1.0933364  85.6601230  31.7242796   2.3618720  86.1286341  31.0436943
   3.4790915  83.5840723  36.3028717   2.9755710  83.5470858  35.4896523
   3.7721522  84.4933466  36.3625374   9.3378931  93.9577034  28.7805093
   8.5608374  93.6188193  28.3360255  10.0170412  93.9629657  28.1060058
   4.1530960  89.0771771  28.6711700   3.8481096  89.3917920  29.5221843
   5.1061402  89.1553191  28.7139033   7.5770238  93.4311015  35.4371701
   6.9193913  94.1210276  35.5251829   8.3810637  93.8207447  35.7805687
   6.3875697  91.7855388  33.4875642   6.9007579  92.4185380  33.9897352
   7.0376921  91.1856583  33.1219002   2.8656528  89.2604843  35.7333983
   1.9479089  89.4819790  35.5755671   3.2816671  89.3351154  34.8745690
   3.6491576  90.6596259  30.8636663   4.3963395  91.1717656  30.5543785
   3.9183165  90.3380312  31.7241057   7.1537493  96.7661389  31.6154785
   6.6999820  95.9252299  31.6719975   6.5231460  97.4022788  31.9529565
   6.0970413  87.6953375  32.8455452   5.3593170  87.1830761  33.1765695
   6.3497186  87.2553757  32.0338729   5.5970432  98.6037886  32.5504603
   5.8893407  99.1642943  31.8316969   6.1069053  98.8966447  33.3057762
   6.1982040  80.4729627  33.4397222   6.5040917  79.6126991  33.1523137
   6.9234645  81.0647247  33.2396216   4.0069691  89.8502304  40.5378686
   4.3619079  90.0773778  41.3973151   4.6541823  90.1820681  39.9155941
   9.7367428  92.9720740  31.2428015   9.5985327  93.1622336  30.3149204
   9.3803647  93.7340123  31.6996066   9.7636808  95.0397267  36.2539286
  10.1973315  94.9472556  37.1022340  10.4768389  95.0154768  35.6159302
   3.4964703  98.6399361  37.7872387   3.5501725  99.2090298  38.5550103
   2.6279484  98.8101247  37.4226424  10.6252358  95.0820968  38.7872171
  10.8188248  95.9866779  39.0331446  10.5252976  94.6228387  39.6210756
   2.2788668  84.9678859  41.2862499   1.6316583  85.6668808  41.1926975
   3.0489684  85.4015003  41.6538747   5.6867466  95.2327711  44.3613052
   5.5352973  95.0038262  43.4443136   5.6772146  96.1898312  44.3744397
   2.4552803  92.8059624  39.3459319   3.3844863  92.9570783  39.1728286
   2.0343833  92.8943644  38.4907965   2.8046350  96.2091891  34.5046694
   2.4696182  96.1692661  35.4004344   2.3050295  95.5436607  34.0317104
   7.3959673  98.2646833  42.4389534   7.3372219  97.5806053  41.7720117
   7.7979191  99.0065823  41.9870160   7.3977080  96.2286417  40.6703514
   6.5103859  95.8912339  40.7929912   7.9675631  95.4969448  40.9072279
   0.9278233 100.8887870  37.6364757   0.8548405 101.6942841  38.1484061
   0.4855627 101.0879835  36.8112778   4.0264663  85.9354269  33.7901784
   4.5233363  85.1824231  33.4702854   3.2551645  85.9718586  33.2244993
  11.8794421  91.6394635  35.4320075  11.8684297  92.5219350  35.0614008
  11.0111800  91.2866185  35.2374612   3.3876917 100.7874704  39.7922915
   4.1004889 101.4222168  39.7198817   2.8966946 100.8838570  38.9762917
   5.1094444  94.6925956  31.3640207   4.1750723  94.8127419  31.1944911
   5.2871112  93.7898423  31.1000217   8.4966995  90.5343276  31.8990241
   8.9627447  91.3671267  31.8250544   8.9474496  90.0688257  32.6035500
   6.5643226  96.8787097  28.8976393   6.8403070  96.7643691  29.8070267
   5.6947725  96.4804582  28.8588566   6.4683658  82.9023863  35.9381143
   5.5546738  83.1328089  36.1063350   6.8976759  82.9862307  36.7895175
   6.2390117  91.0913755  38.4381037   5.5861567  91.3389662  37.7833489
   6.6170496  90.2777893  38.1043514   3.1997290 101.1273448  32.5409207
   3.3819685 100.3095104  33.0036959   4.0230276 101.3441140  32.1034097
   2.2877690  91.8333566  44.9247074   1.6118327  91.7327695  45.5949449
   3.1105323  91.6772779  45.3883071   1.0300472 103.1400493  39.1604690
   1.5818780 103.3032115  39.9253775   1.3706666 103.7304931  38.4884715
   5.8811347  97.9661751  45.0153344   6.4251251  98.5791709  44.5208299
   5.2998192  98.5241329  45.5320357   4.1668860 101.0882469  36.1468372
   4.0419999 100.2872208  35.6379317   4.8247951 101.5828662  35.6582342
   6.2303768  98.8891489  37.7747922   5.2834104  98.7696840  37.7026249
   6.5786541  98.0013987  37.8574183   3.2350201  98.6844205  33.9752274
   3.0875164  97.7560912  34.1559844   4.0603695  98.7064296  33.4909349
   6.8384323  99.5072764  35.0617147   7.7630871  99.3015625  34.9241598
   6.6699627  99.2589165  35.9706488   3.2311716  86.5382043  28.9684391
   3.4475330  87.4206680  28.6673220   2.7505783  86.1468256  28.2390033
   1.6833451  86.9207644  37.6389153   1.4251228  87.8424715  37.6373483
   1.1518491  86.5238078  38.3289617   6.6279639 100.0258431  30.4179238
   6.8016517  99.4604854  29.6653091   7.1208531 100.8259326  30.2358728
   2.1035406  83.0539594  33.9990316   2.1257103  83.1178928  33.0442295
   2.5203465  82.2144103  34.1930822  12.4819031  92.7894854  32.0369538
  12.9250177  92.0402179  31.6388661  11.6045541  92.7804990  31.6543270
   9.5146235  96.7924901  29.0463467  10.0397559  97.1312174  28.3212787
   9.4268588  95.8571916  28.8626602   1.1766284 100.7058975  41.1753344
   1.4853410 100.4608121  42.0476044   1.9741766 100.9105613  40.6872214
   9.2040141  97.4257805  44.3514665   8.4135685  97.4081943  43.8119165
   8.9673496  97.9646098  45.1063702   9.3238016  94.2750271  41.6647394
   9.3736021  94.1100278  42.6062917   9.2151939  93.4077530  41.2745275
   6.6141779  90.2581199  42.9806701   7.5151641  90.1187664  42.6890698
   6.6889753  90.4235654  43.9204878  10.8256213  96.6947213  41.9089415
  10.5341021  97.0577193  42.7452876  10.2128344  95.9814221  41.7302748
  12.0251895  94.2600092  34.4291986  12.8598787  94.6989896  34.5929546
  12.1611024  93.7838746  33.6100231   9.0743401  91.8179827  40.3769473
   9.5497523  92.0107473  39.5688325   8.1508967  91.8739013  40.1312857
   3.6523618  83.8527671  39.3425307   4.1705562  84.5888698  39.0171796
   3.2978750  84.1591664  40.1772066   3.9036212  80.2727953  34.8626204
   4.1837966  79.6051142  35.4886630   4.6886819  80.4657049  34.3500868
   7.7745070  88.6945587  38.6097779   8.7262493  88.7943685  38.6310003
   7.6048521  87.9023856  39.1195863   5.7959450  85.7801170  38.7957180
   5.2009382  86.0606183  38.1003669   5.5109146  86.2695071  39.5673921
  10.2533148  91.9151707  37.7240079  10.2209468  90.9767708  37.9099763
  10.8633772  91.9935744  36.9905904  10.4027636  88.7062750  37.7698362
   9.8866685  87.9221207  37.5828291  11.2867585  88.3781467  37.9344881
   8.0638363  82.4503766  33.7294175   7.8663185  82.1418854  34.6137507
   8.6738069  83.1765405  33.8592104  16.0709698  92.9767714  36.8646116
  16.8013086  92.7153002  37.4253819  15.4616643  92.2396436  36.9048183
  14.1524995  91.1175576  37.4620567  13.4258159  90.9831541  36.8537058
  13.7372282  91.4252405  38.2677285   1.9755171  94.8365506  45.2267940
   2.8958181  95.0144105  45.4207986   1.9404754  93.8921551  45.0747639
   1.8921462  83.2534626  29.8566409   1.0822190  82.9081711  30.2321655
   2.5805879  82.9442170  30.4454021   3.8212010  82.3312673  31.4790706
   4.3743049  82.7508126  32.1380729   4.0582096  81.4048421  31.5213662
   7.1990817  84.4413198  30.9869370   6.6189486  85.0998002  30.6047423
   6.9326750  83.6190543  30.5756788   5.6494383  83.8418256  33.1890691
   6.1494162  83.9534790  32.3805009   6.2929991  83.5379309  33.8291499
   5.9815695  86.6013288  30.0425718   5.0941550  86.8862939  29.8245913
   6.3969684  86.4407052  29.1952995   9.3330231  86.6259809  33.7580058
  10.1090621  87.1156262  34.0304675   8.6078365  87.0517864  34.2151927
  11.7702790  87.3387429  34.8153998  12.3647281  87.0983165  34.1047307
  11.8429374  86.6194559  35.4427535   5.9556719  92.1167824  30.2576009
   5.8991920  92.5736376  29.4183641   6.5085061  91.3558509  30.0798851
   9.7661525  87.9057556  31.0826128   9.5098459  87.5054192  31.9134336
   9.1414393  88.6201350  30.9576267  14.0773863  90.6453629  33.5897420
  13.5173421  90.7146819  34.3628982  13.4717366  90.4694614  32.8696916
   6.6891498  93.3072606  27.5528538   6.6340302  93.1416877  26.6116982
   6.0637553  94.0148638  27.7090728   4.0037405  95.6121517  46.8782101
   4.8728565  95.7862170  46.5168735   3.5244157  96.4315934  46.7557830
   3.8139743  79.4023491  31.3859793   3.0472139  78.8481978  31.5316475
   4.2250448  79.4745360  32.2473945  15.6629881 107.3210143  36.2827375
  16.3008291 107.2016891  35.5790715  15.5450724 108.2690987  36.3415327
  12.4719587 107.2737571  36.2188900  12.1338099 107.1578636  35.3309435
  13.3409356 106.8728737  36.1989906  12.9539370 108.4272423  42.1775105
  12.9428011 108.0325221  41.3055609  13.1160010 107.6938496  42.7708877
  15.2171150 105.0461597  33.3580583  16.0034239 104.6281020  33.0071000
  15.4809854 105.9507689  33.5262232  20.6179577 104.9836830  34.2613562
  21.3504749 104.4136047  34.4951391  19.8618932 104.5958431  34.7020067
  12.2355696 107.4064072  31.4576904  11.8713904 106.8794693  32.1689826
  13.0922812 107.0162541  31.2843390  18.1404997  98.6958405  38.7208170
  17.8088322  99.5653815  38.4969385  17.5450610  98.3794689  39.4002201
  18.0333660 103.4153491  35.8001520  17.1250538 103.3468899  35.5060281
  17.9821256 103.8925436  36.6283346  12.1074526 104.8343136  43.7436418
  11.3307860 105.3937056  43.7339282  12.7465089 105.3199919  44.2651288
  19.8995307 101.6169929  37.5779394  19.2569687 101.9102462  36.9319189
  19.3950235 101.5022849  38.3832591  17.5535470 105.3633102  28.2665254
  18.4653327 105.5960489  28.0912951  17.0445118 105.9470146  27.7040332
  15.8376238 109.7857730  41.9026546  16.2459594 109.3440141  41.1581179
  15.1153500 109.2110358  42.1560739  12.1907308 104.7230337  39.2760103
  13.0368503 105.1469750  39.4194752  12.1305946 104.0663961  39.9698666
  15.3406753 102.3834705  40.9341277  15.0967685 103.1376766  40.3975552
  15.6166684 102.7620053  41.7688524  17.2945216 108.9273318  39.6118542
  17.5062112 109.5705077  38.9352923  17.2474965 108.0935634  39.1440472
  14.8971445 101.5391138  36.5155115  14.0355924 101.8372392  36.8071852
  14.9233880 101.7561537  35.5836147  10.6501901 106.2056481  29.7318485
  11.3525944 106.6577525  30.1992412  10.3182529 105.5640300  30.3598378
   9.0982262 104.7968238  44.1069695   8.4680923 105.4784519  44.3405092
   8.9918350 104.6851319  43.1622833   4.3927235 104.4640034  35.0335619
   3.6026289 104.7197562  34.5575730   4.8838482 105.2788372  35.1387659
  26.4997037 108.1484021  34.1325871  25.7460746 107.5791420  33.9769876
  26.6344578 108.1146686  35.0796506   8.3763005  99.0989004  46.4694946
   7.9829951  98.5455202  47.1442590   9.1929145  99.4099582  46.8601463
  11.2930966 100.5146883  44.0615202  12.0340679 101.1154036  43.9819665
  11.5248889  99.7724521  43.5033245   6.4372304 105.7003250  42.3393432
   6.3225819 104.7988507  42.6400531   5.5816822 105.9466947  41.9878249
  15.2388129  96.5427986  38.3379484  14.8952398  97.4329627  38.2618595
  15.6067091  96.3529643  37.4749069  15.2038412 106.5336597  26.8451919
  14.6885035 107.3041201  27.0840307  14.9315720 105.8601733  27.4684981
  12.7885523 101.3786298  31.9037158  11.9327119 100.9893148  31.7242796
  13.2012474 101.4578258  31.0436943  14.3184669  98.9132641  36.3028717
  13.8149465  98.8762776  35.4896523  14.6115276  99.8225384  36.3625374
  10.5627555  98.9971371  35.3094899  11.4280552  98.8014179  34.9500788
  10.6305064  98.7681722  36.2364256  20.1772686 109.2868951  28.7805093
  19.4002129 108.9480111  28.3360255  20.8564167 109.2921575  28.1060058
  14.9924715 104.4063689  28.6711700  14.6874850 104.7209838  29.5221843
  15.9455157 104.4845109  28.7139033  18.4163993 108.7602933  35.4371701
  17.7587667 109.4502194  35.5251829  19.2204392 109.1499365  35.7805687
   8.1689874 101.2273578  32.6811266   8.7433626 101.0048760  31.9484459
   8.7560857 101.2962273  33.4339867  17.2269451 107.1147305  33.4875642
  17.7401333 107.7477297  33.9897352  17.8770675 106.5148501  33.1219002
  10.4712542  98.1014827  31.4086335   9.8176954  97.7863845  30.7842950
  10.4293016  97.4790568  32.1346158  13.7050282 104.5896761  35.7333983
  12.7872844 104.8111708  35.5755671  14.1210426 104.6643071  34.8745690
  14.4885330 105.9888177  30.8636663  15.2357149 106.5009574  30.5543785
  14.7576920 105.6672229  31.7241057  16.9364167 103.0245293  32.8455452
  16.1986924 102.5122679  33.1765695  17.1890941 102.5845674  32.0338729
  17.0375795  95.8021545  33.4397222  17.3434671  94.9418908  33.1523137
  17.7628399  96.3939165  33.2396216  11.3096874 106.0975338  33.9473413
  11.3645484 105.1449174  33.8715889  10.4988076 106.2534777  34.4314711
   9.2489234 104.7152398  31.7063792   8.4357100 105.0146568  32.1128984
   9.7448228 104.3208086  32.4238274  14.8463446 105.1794222  40.5378686
  15.2012834 105.4065695  41.3973151  15.4935577 105.5112599  39.9155941
  20.5761183 108.3012658  31.2428015  20.4379081 108.4914254  30.3149204
  20.2197402 109.0632041  31.6996066   8.7403309 102.2870753  37.3225027
   9.3802688 102.1459512  36.6247990   7.9080840 102.0005267  36.9463629
  20.6030562 110.3689185  36.2539286  21.0367069 110.2764474  37.1022340
  21.3162143 110.3446686  35.6159302   5.7431925 102.2571078  32.0998013
   6.0038743 103.1716411  31.9907174   6.5649098 101.7895521  32.2494626
   7.2156851 103.6708835  39.2696838   7.8879904 103.4626197  38.6209487
   6.3886637 103.4730921  38.8302070  21.4646112 110.4112886  38.7872171
  21.6582002 111.3158696  39.0331446  21.3646730 109.9520305  39.6210756
  13.1182423 100.2970776  41.2862499  12.4710338 100.9960726  41.1926975
  13.8883438 100.7306920  41.6538747  13.2946557 108.1351541  39.3459319
  14.2238617 108.2862701  39.1728286  12.8737587 108.2235562  38.4907965
   7.6184348 106.9451438  40.0299275   7.4804146 106.2131677  40.6310814
   8.5289271 106.8560338  39.7483463  10.2466649 106.6571398  39.5182955
  10.9566267 106.0164590  39.4769573  10.2035957 106.9084293  40.4409136
   8.9595583 103.6436616  41.3378594   8.4232940 103.1927354  41.9900191
   8.3712291 103.7782524  40.5949059   4.6934704 102.7792623  38.4231589
   4.6092893 102.1718293  37.6881999   3.8717410 103.2701642  38.4241085
  14.8658418 101.2646187  33.7901784  15.3627117 100.5116149  33.4702854
  14.0945399 101.3010503  33.2244993  22.7188175 106.9686552  35.4320075
  22.7078051 107.8511268  35.0614008  21.8505555 106.6158103  35.2374612
  11.4493386 103.4063570  33.5173468  11.0791174 102.8534610  34.2054374
  11.9452479 102.8021703  32.9648468  19.3360750 105.8635193  31.8990241
  19.8021202 106.6963185  31.8250544  19.7868250 105.3980175  32.6035500
  17.3077413  98.2315780  35.9381143  16.3940492  98.4620007  36.1063350
  17.7370514  98.3154224  36.7895175  17.0783871 106.4205672  38.4381037
  16.4255321 106.6681580  37.7833489  17.4564251 105.6069810  38.1043514
  13.1271444 107.1625483  44.9247074  12.4512081 107.0619613  45.5949449
  13.9499078 107.0064697  45.3883071   6.8458720 100.8167561  39.7626574
   6.9100047 101.6782391  39.3503972   6.7825840 100.2041562  39.0298933
   6.3210993 102.8890693  43.4099609   6.9483031 102.5067770  44.0237133
   5.4638912 102.6704895  43.7755301   6.6270782 102.7723119  35.3245512
   5.9057368 103.3859086  35.1852985   7.4164038 103.3080884  35.2462158
   9.4297096 100.1077545  41.5986164   9.9531498 100.3539842  42.3612473
   9.2109429 100.9397580  41.1789301  10.6349641 101.0491240  39.2835834
  10.2946461 100.2499053  39.6856514   9.9288647 101.3492951  38.7112668
  11.2866113  98.1340553  37.7363157  12.1092182  97.6601031  37.6142048
  11.5304176  98.9131037  38.2361844   9.9274347 101.1628811  28.0326059
  10.6482710 101.5410064  27.5289776   9.3039651 101.8817688  28.1361037
  14.0705470 101.8673960  28.9684391  14.2869085 102.7498598  28.6673220
  13.5899537 101.4760174  28.2390033   8.8104692 104.8259673  35.5455136
   8.6649272 105.1399977  36.4379418   8.3329895 105.4444574  34.9926035
  10.6701074 101.8162221  35.5936026  10.6562643 100.9203315  35.2568324
  11.3873503 101.8232885  36.2274312  12.5227205 102.2499562  37.6389153
  12.2644983 103.1716632  37.6373483  11.9912246 101.8529996  38.3289617
  10.0737970 100.6976602  30.8623596  10.1953882  99.7693248  31.0614483
   9.7840013 100.7115288  29.9501911  12.9429161  98.3831512  33.9990316
  12.9650858  98.4470845  33.0442295  13.3597220  97.5436021  34.1930822
  23.3212785 108.1186772  32.0369538  23.7643931 107.3694097  31.6388661
  22.4439295 108.1096908  31.6543270   9.5579050 102.2108599  45.0713528
   9.6067205 103.0870722  44.6891298  10.1001564 101.6685992  44.4985172
  20.1631771 109.6042189  41.6647394  20.2129776 109.4392196  42.6062917
  20.0545694 108.7369448  41.2745275  17.4535533 105.5873117  42.9806701
  18.3545396 105.4479582  42.6890698  17.5283508 105.7527572  43.9204878
  11.7878338 102.9639971  41.8259887  10.9181648 103.2573538  41.5542476
  12.0237819 103.5480416  42.5467151  22.8645650 109.5892010  34.4291986
  23.6992541 110.0281814  34.5929546  23.0004779 109.1130663  33.6100231
  19.9137156 107.1471745  40.3769473  20.3891277 107.3399391  39.5688325
  18.9902721 107.2030931  40.1312857  14.4917372  99.1819588  39.3425307
  15.0099316  99.9180615  39.0171796  14.1372505  99.4883582  40.1772066
  14.7429966  95.6019871  34.8626204  15.0231720  94.9343060  35.4886630
  15.5280573  95.7948967  34.3500868  18.6138825 104.0237505  38.6097779
  19.5656248 104.1235603  38.6310003  18.4442275 103.2315773  39.1195863
  16.6353204 101.1093088  38.7957180  16.0403136 101.3898101  38.1003669
  16.3502901 101.5986989  39.5673921  21.0926902 107.2443625  37.7240079
  21.0603223 106.3059625  37.9099763  21.7027526 107.3227661  36.9905904
  21.2421391 104.0354668  37.7698362  20.7260440 103.2513125  37.5828291
  22.1261340 103.7073385  37.9344881  18.9032118  97.7795684  33.7294175
  18.7056939  97.4710772  34.6137507  19.5131823  98.5057323  33.8592104
  26.9103452 108.3059631  36.8646116  27.6406841 108.0444920  37.4253819
  26.3010398 107.5688353  36.9048183  24.9918749 106.4467494  37.4620567
  24.2651913 106.3123459  36.8537058  24.5766036 106.7544323  38.2677285
  12.7315216  98.5826544  29.8566409  11.9215945  98.2373629  30.2321655
  13.4199633  98.2734087  30.4454021  14.6605765  97.6604591  31.4790706
  15.2136803  98.0800044  32.1380729  14.8975851  96.7340339  31.5213662
  10.6838864 103.6491664  47.2593470  10.5835591 104.5986021  47.1905561
  10.4660406 103.3209903  46.3869540  18.0384572  99.7705116  30.9869370
  17.4583241 100.4289920  30.6047423  17.7720504  98.9482460  30.5756788
  16.4888138  99.1710173  33.1890691  16.9887916  99.2826708  32.3805009
  17.1323746  98.8671226  33.8291499  10.5470134 107.0788803  46.0758531
  10.0637216 107.8789163  46.2822421  10.6331073 107.0896748  45.1225975
  16.8209450 101.9305206  30.0425718  15.9335305 102.2154857  29.8245913
  17.2363439 101.7698969  29.1952995  20.1723986 101.9551727  33.7580058
  20.9484376 102.4448179  34.0304675  19.4472120 102.3809781  34.2151927
  22.6096544 102.6679346  34.8153998  23.2041035 102.4275082  34.1047307
  22.6823128 101.9486477  35.4427535  16.7950473 107.4459742  30.2576009
  16.7385675 107.9028293  29.4183641  17.3478816 106.6850427  30.0798851
  20.6055279 103.2349474  31.0826128  20.3492214 102.8346110  31.9134336
  19.9808147 103.9493268  30.9576267  24.9167617 105.9745547  33.5897420
  24.3567175 106.0438736  34.3628982  24.3111121 105.7986532  32.8696916
  17.5285253 108.6364523  27.5528538  17.4734056 108.4708795  26.6116982
  16.9031308 109.3440556  27.7090728   2.3177768 103.8732588  41.3789960
   2.9636631 103.3631542  41.8677185   2.1094919 104.6101269  41.9533385
  10.8381378  98.1372632  27.1313856  10.8260048  99.0814472  27.2882127
  11.7304800  97.9542778  26.8373317  14.6533498  94.7315409  31.3859793
  13.8865893  94.1773896  31.5316475  15.0644203  94.8037278  32.2473945
   6.6575259 101.0200205  45.4764974   7.5206720 100.6637010  45.6868299
   6.0840669 100.6814099  46.1640378  26.0781883 111.8719903  38.3379484
  25.7346153 112.7621545  38.2618595  26.4460846 111.6821561  37.4749069
  27.8769549 111.1313463  33.4397222  28.1828426 110.2710826  33.1523137
  28.6022154 111.7231083  33.2396216  28.1471167 113.5607698  35.9381143
  27.2334247 113.7911925  36.1063350  28.5764268 113.6446142  36.7895175
  25.5823721 110.9311789  34.8626204  25.8625475 110.2634978  35.4886630
  26.3674328 111.1240884  34.3500868  29.7425872 113.1087601  33.7294175
  29.5450694 112.8002689  34.6137507  30.3525578 113.8349240  33.8592104
  25.4999519 112.9896508  31.4790706  26.0530558 113.4091962  32.1380729
  25.7369605 112.0632256  31.5213662  25.4927252 110.0607327  31.3859793
  24.7259648 109.5065813  31.5316475  25.9037957 110.1329195  32.2473945
   4.8209530  54.4962309  20.8571178   4.0673238  53.9269707  20.7015182
   4.9557071  54.4624973  21.8041813   1.6425277  54.4665059  18.7614845
   2.0856423  53.7172384  18.3633968   0.7651788  54.4575195  18.3788577
   1.1858142  55.9370297  21.1537292   2.0205033  56.3760101  21.3174853
   1.3217271  55.4608950  20.3345538   5.2315945  54.6537919  23.5891422
   5.9619333  54.3923207  24.1499125   4.6222890  53.9166641  23.6293490
   3.3131242  52.7945781  24.1865873   2.5864405  52.6601746  23.5782365
   2.8978529  53.1022610  24.9922591   0.9309037  49.0157633  21.5399305
   1.5253527  48.7753369  20.8292613   1.0035620  48.2964764  22.1672841
   3.2380109  52.3223834  20.3142726   2.6779667  52.3917024  21.0874288
   2.6323613  52.1464819  19.5942222   4.8236128  68.9980348  23.0072682
   5.4614538  68.8787096  22.3036022   4.7056971  69.9461192  23.0660634
   1.6325834  68.9507776  22.9434207   1.2944346  68.8348841  22.0554741
   2.5015602  68.5498941  22.9235213   2.1145617  70.1042628  28.9020412
   2.1034258  69.7095426  28.0300916   2.2766257  69.3708701  29.4954184
   4.3777396  66.7231802  20.0825890   5.1640486  66.3051225  19.7316307
   4.6416101  67.6277894  20.2507538   9.7785823  66.6607035  20.9858868
  10.5110995  66.0906252  21.2196698   9.0225179  66.2728636  21.4265374
   1.3961943  69.0834277  18.1822211   1.0320150  68.5564898  18.8935132
   2.2529059  68.6932746  18.0088696   7.3011244  60.3728609  25.4453477
   6.9694569  61.2424020  25.2214692   6.7056857  60.0564893  26.1247507
   3.7942763  72.5741155  24.8449390   3.4943486  73.4766194  24.7365197
   3.4493823  72.3073339  25.6970543   7.1939907  65.0923696  22.5246827
   6.2856784  65.0239104  22.2305588   7.1427503  65.5695641  23.3528653
   1.2680773  66.5113341  30.4681724   0.4914107  67.0707261  30.4584589
   1.9071336  66.9970124  30.9896594   9.0601554  63.2940134  24.3024701
   8.4175934  63.5872667  23.6564496   8.5556482  63.1793054  25.1077898
   6.7141717  67.0403307  14.9910560   7.6259573  67.2730694  14.8158258
   6.2051364  67.6240351  14.4285639   4.9982485  71.4627935  28.6271853
   5.4065841  71.0210346  27.8826485   4.2759746  70.8880563  28.8806046
   1.3513555  66.4000542  26.0005410   2.1974750  66.8239955  26.1440059
   1.2912193  65.7434166  26.6943973   5.3211300  72.0229126  22.3824142
   4.6920162  72.1874840  21.6800210   4.9336962  72.4370735  23.1535106
   9.2000531  72.9583563  19.7368505   8.5151570  73.3382465  19.1865539
   9.2844381  73.5678890  20.4700453   4.5013000  64.0604910  27.6586583
   4.2573932  64.8146971  27.1220859   4.7772931  64.4390258  28.4933830
   6.4551463  70.6043523  26.3363849   6.6668358  71.2475282  25.6598230
   6.4081211  69.7705839  25.8685779   4.0577692  63.2161343  23.2400421
   3.1962171  63.5142597  23.5317159   4.0840127  63.4331742  22.3081454
   0.8739261  71.7603534  19.6474227   1.3377607  72.0391237  18.8578849
   0.6096060  70.8586978  19.4647318   7.5697291  73.4815478  24.5086206
   8.3914735  73.0795665  24.2268888   7.5659694  73.3783712  25.4602322
   1.3353894  73.0299521  26.6646917   1.3998327  73.4919928  27.5005089
   0.6264818  72.3996886  26.7929227  15.6603284  69.8254226  20.8571178
  14.9066992  69.2561624  20.7015182  15.7950825  69.7916891  21.8041813
   2.6770388  75.3191195  30.6626239   2.2334243  74.5327574  30.3447144
   3.3387602  75.5070346  29.9970130   4.7751627  75.5993995  28.6907641
   4.7570102  76.4202876  28.1987910   5.6971547  75.4748070  28.9157782
   1.2324681  73.1138125  29.5331149   1.7653017  72.3526413  29.3030457
   0.7038762  72.8211776  30.2755303   4.3994376  58.2198191  25.0624791
   4.0558645  59.1099832  24.9863901   4.7673338  58.0299848  24.1994376
   4.3644658  68.2106802  13.5697226   3.8491282  68.9811406  13.8085613
   4.0921967  67.5371938  14.1930287   1.9491769  63.0556502  18.6282464
   1.0933366  62.6663353  18.4488103   2.3618721  63.1348463  17.7682250
   3.4790916  60.5902846  23.0274024   2.9755712  60.5532981  22.2141829
   3.7721523  61.4995588  23.0870681   9.3378933  70.9639156  15.5050399
   8.5608375  70.6250316  15.0605561  10.0170413  70.9691780  14.8305364
   4.1530962  66.0833894  15.3957007   3.8481097  66.3980043  16.2467150
   5.1061404  66.1615314  15.4384340   7.5770239  70.4373138  22.1617007
   6.9193914  71.1272399  22.2497136   8.3810639  70.8269570  22.5050994
   6.3875698  68.7917510  20.2120949   6.9007580  69.4247502  20.7142659
   7.0376922  68.1918706  19.8464309   2.8656529  66.2666966  22.4579290
   1.9479090  66.4881913  22.3000978   3.2816673  66.3413276  21.5990997
   3.6491577  67.6658382  17.5881970   4.3963396  68.1779779  17.2789092
   3.9183166  67.3442434  18.4486363   7.1537494  73.7723512  18.3400092
   6.6999822  72.9314422  18.3965282   6.5231461  74.4084910  18.6774872
   6.0970414  64.7015498  19.5700759   5.3593171  64.1892884  19.9011002
   6.3497188  64.2615879  18.7584036   5.5970434  75.6100008  19.2749910
   5.8893408  76.1705066  18.5562275   6.1069054  75.9028569  20.0303069
   6.1982041  57.4791750  20.1642528   6.5040918  56.6189113  19.8768443
   6.9234646  58.0709370  19.9641522   4.0069693  66.8564427  27.2623992
   4.3619080  67.0835900  28.1218458   4.6541824  67.1882804  26.6401247
   9.7367430  69.9782863  17.9673321   9.5985328  70.1684459  17.0394510
   9.3803648  70.7402246  18.4241372   9.7636809  72.0459390  22.9784593
  10.1973316  71.9534679  23.8267647  10.4768390  72.0216890  22.3404609
   3.4964704  75.6461484  24.5117693   3.5501726  76.2152420  25.2795409
   2.6279485  75.8163369  24.1471730  10.6252359  72.0883091  25.5117478
  10.8188249  72.9928901  25.7576753  10.5252977  71.6290510  26.3456063
   2.2788669  61.9740981  28.0107805   1.6316585  62.6730931  27.9172282
   3.0489685  62.4077125  28.3784054   5.6867467  72.2389833  31.0858359
   5.5352974  72.0100385  30.1688442   5.6772147  73.1960435  31.0989704
   2.4552804  69.8121746  26.0704625   3.3844864  69.9632906  25.8973592
   2.0343834  69.9005767  25.2153272   2.8046351  73.2154013  21.2292001
   2.4696183  73.1754783  22.1249650   2.3050296  72.5498729  20.7562411
   7.3959674  75.2708956  29.1634841   7.3372220  74.5868176  28.4965424
   7.7979192  76.0127946  28.7115467   7.3977081  73.2348540  27.3948820
   6.5103860  72.8974462  27.5175219   7.9675632  72.5031571  27.6317586
   0.9278235  77.8949992  24.3610063   0.8548406  78.7004964  24.8729368
   0.4855628  78.0941958  23.5358085   4.0264664  62.9416392  20.5147090
   4.5233364  62.1886354  20.1948161   3.2551646  62.9780708  19.9490300
  11.8794422  68.6456757  22.1565382  11.8684298  69.5281473  21.7859315
  11.0111801  68.2928308  21.9619919   3.3876918  77.7936826  26.5168222
   4.1004890  78.4284291  26.4444124   2.8966947  77.8900692  25.7008224
   5.1094445  71.6988079  18.0885514   4.1750724  71.8189541  17.9190218
   5.2871114  70.7960546  17.8245524   8.4966997  67.5405398  18.6235548
   8.9627449  68.3733390  18.5495851   8.9474497  67.0750380  19.3280806
   6.5643228  73.8849219  15.6221700   6.8403072  73.7705814  16.5315574
   5.6947726  73.4866704  15.5833873   6.4683659  59.9085985  22.6626449
   5.5546739  60.1390212  22.8308656   6.8976761  59.9924429  23.5140482
   6.2390118  68.0975877  25.1626343   5.5861568  68.3451785  24.5078796
   6.6170498  67.2840015  24.8288821   3.1997292  78.1335570  19.2654514
   3.3819686  77.3157226  19.7282266   4.0230278  78.3503263  18.8279404
   2.2877691  68.8395688  31.6492380   1.6118328  68.7389818  32.3194756
   3.1105325  68.6834902  32.1128378   1.0300474  80.1462616  25.8849996
   1.5818782  80.3094237  26.6499082   1.3706667  80.7367053  25.2130021
   5.8811348  74.9723873  31.7398651   6.4251252  75.5853831  31.2453606
   5.2998193  75.5303452  32.2565664   4.1668861  78.0944591  22.8713679
   4.0420000  77.2934331  22.3624624   4.8247952  78.5890785  22.3827648
   6.2303769  75.8953611  24.4993229   5.2834105  75.7758962  24.4271555
   6.5786542  75.0076109  24.5819490   3.2350203  75.6906327  20.6997581
   3.0875165  74.7623035  20.8805151   4.0603696  75.7126418  20.2154656
   6.8384324  76.5134886  21.7862454   7.7630872  76.3077748  21.6486905
   6.6699628  76.2651287  22.6951795   3.2311717  63.5444165  15.6929698
   3.4475331  64.4268803  15.3918526   2.7505784  63.1530379  14.9635340
   1.6833452  63.9269767  24.3634460   1.4251230  64.8486837  24.3618790
   1.1518492  63.5300201  25.0534924   6.6279641  77.0320554  17.1424545
   6.8016518  76.4666976  16.3898398   7.1208532  77.8321449  16.9604035
   2.1035408  60.0601717  20.7235622   2.1257104  60.1241050  19.7687602
   2.5203467  59.2206226  20.9176128  12.4819032  69.7956977  18.7614845
  12.9250178  69.0464302  18.3633968  11.6045542  69.7867113  18.3788577
   9.5146236  73.7987024  15.7708774  10.0397560  74.1374296  15.0458094
   9.4268589  72.8634039  15.5871909   1.1766285  77.7121097  27.8998651
   1.4853411  77.4670244  28.7721350   1.9741767  77.9167736  27.4117521
   9.2040142  74.4319927  31.0759972   8.4135686  74.4144066  30.5364471
   8.9673497  74.9708221  31.8309009   9.3238017  71.2812394  28.3892701
   9.3736022  71.1162401  29.3308223   9.2151941  70.4139653  27.9990581
   6.6141780  67.2643322  29.7052007   7.5151643  67.1249786  29.4136005
   6.6889754  67.4297776  30.6450185  10.8256214  73.7009335  28.6334722
  10.5341023  74.0639316  29.4698183  10.2128346  72.9876343  28.4548054
  12.0251897  71.2662215  21.1537292  12.8598788  71.7052019  21.3174853
  12.1611025  70.7900868  20.3345538   9.0743402  68.8241950  27.1014780
   9.5497524  69.0169596  26.2933632   8.1508968  68.8801136  26.8558164
   3.6523619  60.8589793  26.0670614   4.1705563  61.5950820  25.7417103
   3.2978752  61.1653787  26.9017373   3.9036213  57.2790076  21.5871511
   4.1837967  56.6113265  22.2131937   4.6886820  57.4719171  21.0746174
   7.7745071  65.7007710  25.3343086   8.7262494  65.8005808  25.3555310
   7.6048522  64.9085978  25.8441170   5.7959451  62.7863293  25.5202487
   5.2009383  63.0668306  24.8248975   5.5109148  63.2757194  26.2919228
  10.2533149  68.9213830  24.4485385  10.2209469  67.9829830  24.6345069
  10.8633773  68.9997866  23.7151210  10.4027638  65.7124873  24.4943669
   9.8866686  64.9283330  24.3073597  11.2867586  65.3843590  24.6590188
   8.0638365  59.4565889  20.4539481   7.8663186  59.1480977  21.3382813
   8.6738070  60.1827527  20.5837411  16.0709699  69.9829836  23.5891422
  16.8013088  69.7215125  24.1499125  15.4616645  69.2458558  23.6293490
  14.1524996  68.1237699  24.1865873  13.4258160  67.9893664  23.5782365
  13.7372283  68.4314528  24.9922591   1.9755173  71.8427629  31.9513246
   2.8958182  72.0206228  32.1453293   1.9404756  70.8983674  31.7992946
   1.8921463  60.2596749  16.5811716   1.0822191  59.9143834  16.9566962
   2.5805880  59.9504292  17.1699328   3.8212011  59.3374795  18.2036013
   4.3743050  59.7570249  18.8626036   4.0582098  58.4110544  18.2458969
   7.1990818  61.4475321  17.7114677   6.6189487  62.1060125  17.3292729
   6.9326751  60.6252665  17.3002094   5.6494385  60.8480378  19.9135997
   6.1494163  60.9596913  19.1050316   6.2929993  60.5441431  20.5536806
   5.9815696  63.6075411  16.7671025   5.0941551  63.8925062  16.5491220
   6.3969685  63.4469174  15.9198302   9.3330233  63.6321932  20.4825364
  10.1090623  64.1218384  20.7549981   8.6078367  64.0579986  20.9397234
  11.7702791  64.3449551  21.5399305  12.3647282  64.1045287  20.8292613
  11.8429375  63.6256682  22.1672841   5.9556720  69.1229947  16.9821315
   5.8991922  69.5798498  16.1428948   6.5085063  68.3620631  16.8044158
   9.7661526  64.9119679  17.8071435   9.5098460  64.5116314  18.6379642
   9.1414394  65.6263473  17.6821574  14.0773864  67.6515752  20.3142726
  13.5173422  67.7208941  21.0874288  13.4717367  67.4756737  19.5942222
   6.6891499  70.3134728  14.2773844   6.6340303  70.1479000  13.3362289
   6.0637555  71.0210761  14.4336034   4.0037407  72.6183640  33.6027407
   4.8728566  72.7924292  33.2414042   3.5244158  73.4378057  33.4803137
   3.8139744  56.4085614  18.1105100   3.0472140  55.8544100  18.2561782
   4.2250449  56.4807483  18.9719251  15.6629882  84.3272266  23.0072682
  16.3008292  84.2079013  22.3036022  15.5450725  85.2753110  23.0660634
  12.4719589  84.2799694  22.9434207  12.1338100  84.1640759  22.0554741
  13.3409357  83.8790859  22.9235213  12.9539372  85.4334546  28.9020412
  12.9428012  85.0387344  28.0300916  13.1160011  84.7000618  29.4954184
   9.6746633  88.2171658  27.8499596   9.3836499  89.1217288  27.7346262
  10.3103617  88.2588185  28.5643666  10.6002840  85.5948506  24.4400956
  11.1966412  85.3704528  23.7257919  10.6577811  84.8533252  25.0426404
  15.2171151  82.0523720  20.0825890  16.0034240  81.6343143  19.7316307
  15.4809855  82.9569812  20.2507538  20.6179578  81.9898953  20.9858868
  21.3504750  81.4198170  21.2196698  19.8618934  81.6020553  21.4265374
  12.2355698  84.4126194  18.1822211  11.8713905  83.8856815  18.8935132
  13.0922814  84.0224664  18.0088696  18.1404998  75.7020527  25.4453477
  17.8088323  76.5715938  25.2214692  17.5450612  75.3856811  26.1247507
  14.6336518  87.9033073  24.8449390  14.3337241  88.8058112  24.7365197
  14.2887577  87.6365256  25.6970543   8.0848999  84.3546870  20.8786094
   7.1599496  84.2223084  21.0863786   8.3333413  85.1341089  21.3756037
  18.0333662  80.4215613  22.5246827  17.1250539  80.3531022  22.2305588
  17.9821257  80.8987558  23.3528653  12.1074527  81.8405259  30.4681724
  11.3307861  82.3999179  30.4584589  12.7465090  82.3262042  30.9896594
  19.8995308  78.6232052  24.3024701  19.2569688  78.9164585  23.6564496
  19.3950237  78.5084972  25.1077898  17.5535472  82.3695225  14.9910560
  18.4653328  82.6022612  14.8158258  17.0445119  82.9532269  14.4285639
  10.3620900  84.6490712  30.0299691  11.1035584  85.1875756  29.7534515
   9.6557885  85.2757001  30.1871243  15.8376239  86.7919853  28.6271853
  16.2459595  86.3502263  27.8826485  15.1153501  86.2172480  28.8806046
  12.1907309  81.7292459  26.0005410  13.0368505  82.1531873  26.1440059
  12.1305947  81.0726084  26.6943973  16.1605054  87.3521043  22.3824142
  15.5313916  87.5166757  21.6800210  15.7730716  87.7662653  23.1535106
  20.0394286  88.2875481  19.7368505  19.3545324  88.6674383  19.1865539
  20.1238135  88.8970808  20.4700453  15.3406755  79.3896828  27.6586583
  15.0967687  80.1438888  27.1220859  15.6166685  79.7682175  28.4933830
  17.2945218  85.9335440  26.3363849  17.5062113  86.5767200  25.6598230
  17.2474966  85.0997757  25.8685779  14.8971446  78.5453261  23.2400421
  14.0355926  78.8434514  23.5317159  14.9233881  78.7623660  22.3081454
  11.7133016  87.0895451  19.6474227  12.1771361  87.3683154  18.8578849
  11.4489814  86.1878896  19.4647318   8.6057097  86.6366933  22.5853990
   9.1758454  87.0654201  21.9471475   9.1965209  86.3549518  23.2838176
  10.6501902  83.2118604  16.4563792  11.3525945  83.6639647  16.9237718
  10.3182530  82.5702423  17.0843685   9.0982263  81.8030360  30.8315001
   8.4680924  82.4846641  31.0650398   8.9918351  81.6913442  29.8868140
   4.3927236  81.4702156  21.7580926   3.6026290  81.7259685  21.2821036
   4.8838483  82.2850494  21.8632966  18.4091045  88.8107396  24.5086206
  19.2308489  88.4087583  24.2268888  18.4053448  88.7075630  25.4602322
  12.1747649  88.3591439  26.6646917  12.2392081  88.8211846  27.5005089
  11.4658573  87.7288804  26.7929227   2.6764939  81.7232647  24.1895916
   2.9272977  82.6079657  24.4553492   3.2124487  81.5437248  23.4171008
  26.4997039  85.1546144  20.8571178  25.7460747  84.5853542  20.7015182
  26.6344580  85.1208809  21.8041813   8.3763006  76.1051126  33.1940252
   7.9829952  75.5517325  33.8687897   9.1929147  76.4161705  33.5846770
  11.2930967  77.5209005  30.7860509  12.0340681  78.1216158  30.7064971
  11.5248890  76.7786643  30.2278552   6.4372305  82.7065373  29.0638739
   6.3225820  81.8050630  29.3645838   5.5816823  82.9529069  28.7123555
  13.5164143  90.6483113  30.6626239  13.0727997  89.8619491  30.3447144
  14.1781357  90.8362263  29.9970130   8.2751264  92.1778914  25.1886918
   8.8258689  92.0495978  24.4163912   7.4362740  92.4773804  24.8381811
  15.6145381  90.9285913  28.6907641  15.5963856  91.7494794  28.1987910
  16.5365301  90.8039988  28.9157782  12.0718435  88.4430042  29.5331149
  12.6046772  87.6818330  29.3030457  11.5432516  88.1503694  30.2755303
  15.2388130  73.5490108  25.0624791  14.8952400  74.4391750  24.9863901
  15.6067093  73.3591766  24.1994376  15.2038413  83.5398719  13.5697226
  14.6885036  84.3103324  13.8085613  14.9315721  82.8663856  14.1930287
  12.7885524  78.3848420  18.6282464  11.9327120  77.9955271  18.4488103
  13.2012476  78.4640381  17.7682250  14.3184671  75.9194763  23.0274024
  13.8149466  75.8824899  22.2141829  14.6115277  76.8287506  23.0870681
  10.5627556  76.0033493  22.0340206  11.4280553  75.8076302  21.6746095
  10.6305065  75.7743845  22.9609562  20.1772687  86.2931074  15.5050399
  19.4002130  85.9542234  15.0605561  20.8564168  86.2983697  14.8305364
  14.9924716  81.4125811  15.3957007  14.6874852  81.7271961  16.2467150
  15.9455158  81.4907231  15.4384340  18.4163994  85.7665055  22.1617007
  17.7587668  86.4564317  22.2497136  19.2204393  86.1561487  22.5050994
   8.1689875  78.2335701  19.4056572   8.7433627  78.0110883  18.6729765
   8.7560858  78.3024396  20.1585174  17.2269453  84.1209428  20.2120949
  17.7401334  84.7539420  20.7142659  17.8770677  83.5210623  19.8464309
  10.4712543  75.1076950  18.1331642   9.8176956  74.7925967  17.5088257
  10.4293017  74.4852690  18.8591465  13.7050284  81.5958884  22.4579290
  12.7872845  81.8173831  22.3000978  14.1210427  81.6705194  21.5990997
  14.4885331  82.9950299  17.5881970  15.2357150  83.5071696  17.2789092
  14.7576921  82.6734352  18.4486363  17.9931249  89.1015429  18.3400092
  17.5393576  88.2606339  18.3965282  17.3625216  89.7376828  18.6774872
  16.9364168  80.0307415  19.5700759  16.1986925  79.5184802  19.9011002
  17.1890942  79.5907797  18.7584036  16.4364188  90.9391926  19.2749910
  16.7287163  91.4996983  18.5562275  16.9462809  91.2320487  20.0303069
  17.0375796  72.8083667  20.1642528  17.3434673  71.9481031  19.8768443
  17.7628401  73.4001288  19.9641522  11.3096876  83.1037461  20.6718719
  11.3645485  82.1511297  20.5961196  10.4988078  83.2596900  21.1560018
   9.2489235  81.7214520  18.4309098   8.4357101  82.0208691  18.8374290
   9.7448230  81.3270209  19.1483581  14.8463447  82.1856345  27.2623992
  15.2012835  82.4127818  28.1218458  15.4935578  82.5174722  26.6401247
  20.5761184  85.3074781  17.9673321  20.4379083  85.4976377  17.0394510
  20.2197403  86.0694163  18.4241372   8.7403310  79.2932876  24.0470333
   9.3802690  79.1521635  23.3493297   7.9080841  79.0067389  23.6708935
  20.6030564  87.3751308  22.9784593  21.0367070  87.2826597  23.8267647
  21.3162144  87.3508808  22.3404609  14.3358459  90.9753402  24.5117693
  14.3895481  91.5444338  25.2795409  13.4673240  91.1455287  24.1471730
   5.7431927  79.2633201  18.8243320   6.0038744  80.1778534  18.7152480
   6.5649099  78.7957643  18.9739933   7.2156852  80.6770958  25.9942145
   7.8879905  80.4688320  25.3454793   6.3886638  80.4793044  25.5547377
  21.4646113  87.4175008  25.5117478  21.6582003  88.3220819  25.7576753
  21.3646731  86.9582427  26.3456063  13.1182424  77.3032899  28.0107805
  12.4710339  78.0022849  27.9172282  13.8883439  77.7369043  28.3784054
  16.5261222  87.5681751  31.0858359  16.3746728  87.3392303  30.1688442
  16.5165901  88.5252352  31.0989704  13.2946558  85.1413664  26.0704625
  14.2238618  85.2924823  25.8973592  12.8737588  85.2297685  25.2153272
  12.0934890  89.1664328  23.8403163  11.9545976  88.7983113  24.7129101
  11.3049486  89.6811968  23.6687121  13.6440105  88.5445931  21.2292001
  13.3089938  88.5046701  22.1249650  13.1444051  87.8790647  20.7562411
   7.6184349  83.9513561  26.7544582   7.4804147  83.2193800  27.3556121
   8.5289273  83.8622461  26.4728769  10.2466650  83.6633520  26.2428261
  10.9566268  83.0226712  26.2014880  10.2035958  83.9146415  27.1654442
  18.2353429  90.6000874  29.1634841  18.1765975  89.9160094  28.4965424
  18.6372947  91.3419864  28.7115467   8.9595584  80.6498738  28.0623901
   8.4232941  80.1989477  28.7145497   8.3712292  80.7844647  27.3194365
  18.2370836  88.5640458  27.3948820  17.3497615  88.2266379  27.5175219
  18.8069387  87.8323489  27.6317586   4.6934705  79.7854746  25.1476895
   4.6092894  79.1780415  24.4127305   3.8717412  80.2763764  25.1486392
  11.7671989  93.2241910  24.3610063  11.6942161  94.0296881  24.8729368
  11.3249382  93.4233876  23.5358085  14.8658419  78.2708309  20.5147090
  15.3627119  77.5178272  20.1948161  14.0945400  78.3072626  19.9490300
  22.7188176  83.9748675  22.1565382  22.7078053  84.8573390  21.7859315
  21.8505556  83.6220226  21.9619919  14.2270673  93.1228744  26.5168222
  14.9398645  93.7576209  26.4444124  13.7360701  93.2192610  25.7008224
  15.9488200  87.0279997  18.0885514  15.0144478  87.1481459  17.9190218
  16.1264868  86.1252463  17.8245524  11.4493388  80.4125692  20.2418775
  11.0791175  79.8596733  20.9299681  11.9452480  79.8083826  19.6893775
  19.3360751  82.8697316  18.6235548  19.8021203  83.7025307  18.5495851
  19.7868252  82.4042297  19.3280806   9.2782586  90.8723187  27.3373793
   9.9792046  91.5059670  27.4903187   8.8077701  91.2137919  26.5769432
  17.4036982  89.2141137  15.6221700  17.6796826  89.0997732  16.5315574
  16.5341481  88.8158622  15.5833873  17.3077414  75.2377903  22.6626449
  16.3940494  75.4682130  22.8308656  17.7370515  75.3216347  23.5140482
  17.0783872  83.4267795  25.1626343  16.4255322  83.6743702  24.5078796
  17.4564252  82.6131933  24.8288821  14.0391046  93.4627488  19.2654514
  14.2213441  92.6449144  19.7282266  14.8624032  93.6795180  18.8279404
  13.1271445  84.1687606  31.6492380  12.4512082  84.0681735  32.3194756
  13.9499079  84.0126820  32.1128378  11.8694228  95.4754533  25.8849996
  12.4212536  95.6386155  26.6499082  12.2100422  96.0658971  25.2130021
   6.8458721  77.8229683  26.4871881   6.9100048  78.6844514  26.0749279
   6.7825842  77.2103685  25.7544240   6.3210994  79.8952816  30.1344915
   6.9483033  79.5129893  30.7482440   5.4638913  79.6767018  30.5000608
  16.7205102  90.3015791  31.7398651  17.2645006  90.9145749  31.2453606
  16.1391947  90.8595369  32.2565664  15.0062615  93.4236509  22.8713679
  14.8813755  92.6226249  22.3624624  15.6641707  93.9182702  22.3827648
   6.6270784  79.7785241  22.0490819   5.9057369  80.3921209  21.9098292
   7.4164039  80.3143006  21.9707465  17.0697524  91.2245529  24.4993229
  16.1227859  91.1050880  24.4271555  17.4180297  90.3368027  24.5819490
   9.4297097  77.1139668  28.3231471   9.9531499  77.3601964  29.0857780
   9.2109430  77.9459703  27.9034608  14.0743957  91.0198245  20.6997581
  13.9268920  90.0914953  20.8805151  14.8997451  91.0418336  20.2154656
  17.6778079  91.8426804  21.7862454  18.6024626  91.6369665  21.6486905
  17.5093382  91.5943205  22.6951795  10.6349642  78.0553363  26.0081141
  10.2946463  77.2561176  26.4101821   9.9288649  78.3555074  25.4357974
  11.2866114  75.1402675  24.4608464  12.1092183  74.6663154  24.3387354
  11.5304178  75.9193159  24.9607150   9.9274349  78.1690934  14.7571366
  10.6482711  78.5472187  14.2535083   9.3039653  78.8879811  14.8606344
  14.0705471  78.8736083  15.6929698  14.2869086  79.7560721  15.3918526
  13.5899539  78.4822296  14.9635340   8.8104693  81.8321796  22.2700443
   8.6649274  82.1462099  23.1624724   8.3329896  82.4506696  21.7171341
  10.6701076  78.8224344  22.3181332  10.6562644  77.9265437  21.9813630
  11.3873504  78.8295008  22.9519618  12.5227206  79.2561684  24.3634460
  12.2644984  80.1778755  24.3618790  11.9912247  78.8592119  25.0534924
  17.4673395  92.3612471  17.1424545  17.6410273  91.7958894  16.3898398
  17.9602286  93.1613366  16.9604035   3.2850355  84.3727140  25.2088104
   2.7403823  85.1486948  25.3408378   4.1629705  84.7197945  25.0507225
  10.0737972  77.7038724  17.5868902  10.1953883  76.7755370  17.7859790
   9.7840014  77.7177410  16.6747218  12.9429162  75.3893635  20.7235622
  12.9650859  75.4532968  19.7687602  13.3597221  74.5498143  20.9176128
  23.3212786  85.1248894  18.7614845  23.7643932  84.3756219  18.3633968
  22.4439297  85.1159031  18.3788577   4.0716377  83.4997037  28.1018261
   3.3298113  83.6479672  28.6882891   3.7509121  83.7605302  27.2385010
  20.3539991  89.1278941  15.7708774  20.8791315  89.4666214  15.0458094
  20.2662343  88.1925957  15.5871909  12.0160039  93.0413015  27.8998651
  12.3247166  92.7962162  28.7721350  12.8135522  93.2459653  27.4117521
   9.4854524  90.7388934  22.2026329   8.8634533  90.0759639  21.9028557
  10.1559391  90.7650066  21.5199977   9.5579051  79.2170722  31.7958835
   9.6067207  80.0932844  31.4136605  10.1001565  78.6748115  31.2230478
  20.0433897  89.7611845  31.0759972  19.2529441  89.7435984  30.5364471
  19.8067251  90.3000139  31.8309009  20.1631772  86.6104311  28.3892701
  20.2129777  86.4454319  29.3308223  20.0545695  85.7431570  27.9990581
  17.4535534  82.5935239  29.7052007  18.3545397  82.4541704  29.4136005
  17.5283509  82.7589694  30.6450185  11.7878340  79.9702094  28.5505194
  10.9181649  80.2635660  28.2787782  12.0237820  80.5542539  29.2712457
  21.6649969  89.0301253  28.6334722  21.3734777  89.3931233  29.4698183
  21.0522100  88.3168261  28.4548054  22.8645651  86.5954133  21.1537292
  23.6992542  87.0343937  21.3174853  23.0004780  86.1192786  20.3345538
  19.9137157  84.1533867  27.1014780  20.3891279  84.3461514  26.2933632
  18.9902722  84.2093053  26.8558164  14.4917373  76.1881711  26.0670614
  15.0099317  76.9242738  25.7417103  14.1372506  76.4945704  26.9017373
  14.7429968  72.6081994  21.5871511  15.0231721  71.9405183  22.2131937
  15.5280575  72.8011089  21.0746174  18.6138826  81.0299628  25.3343086
  19.5656249  81.1297725  25.3555310  18.4442276  80.2377896  25.8441170
  16.6353205  78.1155211  25.5202487  16.0403138  78.3960223  24.8248975
  16.3502902  78.6049112  26.2919228  21.0926904  84.2505747  24.4485385
  21.0603224  83.3121748  24.6345069  21.7027527  84.3289784  23.7151210
  21.2421392  81.0416791  24.4943669  20.7260441  80.2575247  24.3073597
  22.1261341  80.7135507  24.6590188  18.9032119  74.7857806  20.4539481
  18.7056940  74.4772894  21.3382813  19.5131825  75.5119445  20.5837411
  26.9103454  85.3121754  23.5891422  27.6406842  85.0507042  24.1499125
  26.3010399  84.5750476  23.6293490  24.9918751  83.4529617  24.1865873
  24.2651914  83.3185582  23.5782365  24.5766038  83.7606445  24.9922591
  12.8148927  87.1719546  31.9513246  13.7351937  87.3498145  32.1453293
  12.7798510  86.2275592  31.7992946   5.8111000  85.0820581  24.5936028
   6.0297009  86.0137689  24.6124061   6.2236774  84.7228555  25.3790831
  12.7315217  75.5888666  16.5811716  11.9215946  75.2435751  16.9566962
  13.4199634  75.2796210  17.1699328  14.6605766  74.6666713  18.2036013
  15.2136804  75.0862167  18.8626036  14.8975852  73.7402461  18.2458969
  10.6838865  80.6553787  33.9838776  10.5835592  81.6048144  33.9150868
  10.4660407  80.3272026  33.1114847  18.0384573  76.7767238  17.7114677
  17.4583242  77.4352042  17.3292729  17.7720506  75.9544583  17.3002094
  16.4888139  76.1772296  19.9135997  16.9887918  76.2888830  19.1050316
  17.1323747  75.8733349  20.5536806  10.5470135  84.0850926  32.8003838
  10.0637217  84.8851286  33.0067727  10.6331074  84.0958870  31.8471282
   6.4743473  87.9755460  24.8372272   7.4286726  87.9439403  24.7702203
   6.2755996  87.5146084  25.6522498   7.0642855  86.5456576  27.4043070
   7.8835744  87.0400655  27.4277907   7.3379662  85.6288544  27.3760637
  16.8209451  78.9367329  16.7671025  15.9335306  79.2216979  16.5491220
  17.2363440  78.7761092  15.9198302  20.1723987  78.9613850  20.4825364
  20.9484377  79.4510302  20.7549981  19.4472121  79.3871904  20.9397234
  22.6096546  79.6741469  21.5399305  23.2041036  79.4337205  20.8292613
  22.6823129  78.9548599  22.1672841  16.7950475  84.4521865  16.9821315
  16.7385676  84.9090416  16.1428948  17.3478817  83.6912549  16.8044158
  20.6055281  80.2411596  17.8071435  20.3492215  79.8408232  18.6379642
  19.9808149  80.9555390  17.6821574  24.9167618  82.9807670  20.3142726
  24.3567176  83.0500859  21.0874288  24.3111122  82.8048654  19.5942222
  17.5285254  85.6426646  14.2773844  17.4734058  85.4770917  13.3362289
  16.9031309  86.3502679  14.4336034   2.3177769  80.8794710  28.1035267
   2.9636633  80.3693664  28.5922492   2.1094920  81.6163392  28.6778692
  14.8431161  87.9475558  33.6027407  15.7122321  88.1216210  33.2414042
  14.3637913  88.7669975  33.4803137  10.8381379  75.1434755  13.8559163
  10.8260049  76.0876595  14.0127434  11.7304801  74.9604900  13.5618624
   9.0117341  95.0672659  25.2816841   9.9144588  95.0996269  25.5983336
   8.7854711  94.1373110  25.2963177  14.6533499  71.7377531  18.1105100
  13.8865895  71.1836018  18.2561782  15.0644204  71.8099400  18.9719251
   6.6575260  78.0262327  32.2010281   7.5206721  77.6699132  32.4113605
   6.0840671  77.6876222  32.8885685  26.5023637  99.6564184  23.0072682
  27.1402047  99.5370931  22.3036022  26.3844480 100.6045028  23.0660634
  23.3113343  99.6091612  22.9434207  22.9731855  99.4932676  22.0554741
  24.1803111  99.2082777  22.9235213  23.7933126 100.7626463  28.9020412
  23.7821767 100.3679262  28.0300916  23.9553766 100.0292536  29.4954184
  20.5140387 103.5463575  27.8499596  20.2230253 104.4509206  27.7346262
  21.1497372 103.5880103  28.5643666  21.4396594 100.9240424  24.4400956
  22.0360166 100.6996446  23.7257919  21.4971566 100.1825169  25.0426404
  26.0564905  97.3815637  20.0825890  26.8427995  96.9635061  19.7316307
  26.3203610  98.2861730  20.2507538  31.4573332  97.3190871  20.9858868
  32.1898504  96.7490087  21.2196698  30.7012688  96.9312471  21.4265374
  23.0749452  99.7418112  18.1822211  22.7107659  99.2148733  18.8935132
  23.9316568  99.3516581  18.0088696  28.9798753  91.0312445  25.4453477
  28.6482078  91.9007856  25.2214692  28.3844366  90.7148729  26.1247507
  25.4730272 103.2324991  24.8449390  25.1730995 104.1350030  24.7365197
  25.1281332 102.9657174  25.6970543  18.9242754  99.6838788  20.8786094
  17.9993250  99.5515002  21.0863786  19.1727167 100.4633007  21.3756037
  28.8727416  95.7507531  22.5246827  27.9644293  95.6822939  22.2305588
  28.8215012  96.2279476  23.3528653  22.9468282  97.1697177  30.4681724
  22.1701616  97.7291097  30.4584589  23.5858845  97.6553960  30.9896594
  30.7389063  93.9523969  24.3024701  30.0963443  94.2456503  23.6564496
  30.2343991  93.8376890  25.1077898  28.3929226  97.6987143  14.9910560
  29.3047082  97.9314529  14.8158258  27.8838873  98.2824187  14.4285639
  21.2014654  99.9782630  30.0299691  21.9429339 100.5167674  29.7534515
  20.4951640 100.6048919  30.1871243  26.6769994 102.1211770  28.6271853
  27.0853350 101.6794181  27.8826485  25.9547255 101.5464398  28.8806046
  23.0301064  97.0584377  26.0005410  23.8762259  97.4823791  26.1440059
  22.9699702  96.4018001  26.6943973  26.9998809 102.6812961  22.3824142
  26.3707671 102.8458675  21.6800210  26.6124471 103.0954571  23.1535106
  30.8788040 103.6167399  19.7368505  30.1939079 103.9966300  19.1865539
  30.9631890 104.2262725  20.4700453  26.1800509  94.7188745  27.6586583
  25.9361441  95.4730806  27.1220859  26.4560440  95.0974093  28.4933830
  28.1338972 101.2627358  26.3363849  28.3455867 101.9059118  25.6598230
  28.0868720 100.4289674  25.8685779  25.7365201  93.8745179  23.2400421
  24.8749680  94.1726432  23.5317159  25.7627636  94.0915577  22.3081454
  22.5526770 102.4187369  19.6474227  23.0165116 102.6975072  18.8578849
  22.2883568 101.5170814  19.4647318  19.4450851 101.9658851  22.5853990
  20.0152209 102.3946119  21.9471475  20.0358963 101.6841435  23.2838176
  21.4895656  98.5410521  16.4563792  22.1919700  98.9931565  16.9237718
  21.1576285  97.8994340  17.0843685  19.9376018  97.1322278  30.8315001
  19.3074679  97.8138559  31.0650398  19.8312106  97.0205360  29.8868140
  15.2320990  96.7994074  21.7580926  14.4420044  97.0551603  21.2821036
  15.7232238  97.6142412  21.8632966  29.2484800 104.1399313  24.5086206
  30.0702244 103.7379501  24.2268888  29.2447203 104.0367547  25.4602322
  23.0141403 103.6883357  26.6646917  23.0785836 104.1503764  27.5005089
  22.3052327 103.0580722  26.7929227  13.5158693  97.0524565  24.1895916
  13.7666732  97.9371574  24.4553492  14.0518242  96.8729166  23.4171008
  37.3390793 100.4838062  20.8571178  36.5854501  99.9145460  20.7015182
  37.4738334 100.4500726  21.8041813  19.2156761  91.4343044  33.1940252
  18.8223706  90.8809242  33.8687897  20.0322901  91.7453622  33.5846770
  22.1324722  92.8500923  30.7860509  22.8734435  93.4508076  30.7064971
  22.3642645  92.1078561  30.2278552  17.2766060  98.0357290  29.0638739
  17.1619575  97.1342548  29.3645838  16.4210577  98.2820987  28.7123555
  24.3557897 105.9775031  30.6626239  23.9121752 105.1911409  30.3447144
  25.0175111 106.1654181  29.9970130  19.1145019 107.5070832  25.1886918
  19.6652444 107.3787896  24.4163912  18.2756495 107.8065721  24.8381811
  26.4539136 106.2577831  28.6907641  26.4357611 107.0786712  28.1987910
  27.3759056 106.1331906  28.9157782  22.9112190 103.7721960  29.5331149
  23.4440526 103.0110248  29.3030457  22.3826271 103.4795612  30.2755303
  26.0781885  88.8782026  25.0624791  25.7346154  89.7683668  24.9863901
  26.4460847  88.6883684  24.1994376  26.0432167  98.8690637  13.5697226
  25.5278791  99.6395242  13.8085613  25.7709476  98.1955773  14.1930287
  23.6279278  93.7140338  18.6282464  22.7720875  93.3247188  18.4488103
  24.0406230  93.7932299  17.7682250  25.1578425  91.2486681  23.0274024
  24.6543221  91.2116816  22.2141829  25.4509032  92.1579424  23.0870681
  21.4021311  91.3325411  22.0340206  22.2674308  91.1368220  21.6746095
  21.4698820  91.1035763  22.9609562  31.0166441 101.6222992  15.5050399
  30.2395884 101.2834151  15.0605561  31.6957922 101.6275615  14.8305364
  25.8318471  96.7417729  15.3957007  25.5268606  97.0563878  16.2467150
  26.7848913  96.8199149  15.4384340  29.2557748 101.0956973  22.1617007
  28.5981423 101.7856234  22.2497136  30.0598148 101.4853405  22.5050994
  19.0083630  93.5627619  19.4056572  19.5827382  93.3402800  18.6729765
  19.5954612  93.6316313  20.1585174  28.0663207  99.4501346  20.2120949
  28.5795089 100.0831337  20.7142659  28.7164431  98.8502541  19.8464309
  21.3106298  90.4368868  18.1331642  20.6570710  90.1217885  17.5088257
  21.2686772  89.8144608  18.8591465  24.5444038  96.9250801  22.4579290
  23.6266599  97.1465748  22.3000978  24.9604182  96.9997112  21.5990997
  25.3279086  98.3242217  17.5881970  26.0750905  98.8363614  17.2789092
  25.5970675  98.0026270  18.4486363  28.8325003 104.4307347  18.3400092
  28.3787331 103.5898257  18.3965282  28.2018970 105.0668745  18.6774872
  27.7757923  95.3599333  19.5700759  27.0380680  94.8476719  19.9011002
  28.0284696  94.9199715  18.7584036  27.2757943 106.2683844  19.2749910
  27.5680917 106.8288901  18.5562275  27.7856563 106.5612405  20.0303069
  27.8769550  88.1375585  20.1642528  28.1828427  87.2772949  19.8768443
  28.6022155  88.7293205  19.9641522  22.1490630  98.4329378  20.6718719
  22.2039240  97.4803215  20.5961196  21.3381832  98.5888817  21.1560018
  20.0882990  97.0506438  18.4309098  19.2750855  97.3500609  18.8374290
  20.5841984  96.6562127  19.1483581  25.6857202  97.5148262  27.2623992
  26.0406589  97.7419736  28.1218458  26.3329333  97.8466639  26.6401247
  31.4154939 100.6366698  17.9673321  31.2772837 100.8268294  17.0394510
  31.0591157 101.3986081  18.4241372  19.5797065  94.6224793  24.0470333
  20.2196444  94.4813553  23.3493297  18.7474595  94.3359307  23.6708935
  31.4424318 102.7043225  22.9784593  31.8760825 102.6118514  23.8267647
  32.1555899 102.6800726  22.3404609  25.1752213 106.3045319  24.5117693
  25.2289235 106.8736256  25.2795409  24.3066994 106.4747204  24.1471730
  16.5825681  94.5925118  18.8243320  16.8432498  95.5070452  18.7152480
  17.4042853  94.1249561  18.9739933  18.0550606  96.0062876  25.9942145
  18.7273660  95.7980238  25.3454793  17.2280393  95.8084962  25.5547377
  32.3039868 102.7466926  25.5117478  32.4975758 103.6512736  25.7576753
  32.2040486 102.2874345  26.3456063  23.9576178  92.6324817  28.0107805
  23.3104094  93.3314766  27.9172282  24.7277194  93.0660960  28.3784054
  27.3654976 102.8973669  31.0858359  27.2140483 102.6684220  30.1688442
  27.3559656 103.8544270  31.0989704  24.1340313 100.4705581  26.0704625
  25.0632373 100.6216741  25.8973592  23.7131343 100.5589602  25.2153272
  22.9328645 104.4956246  23.8403163  22.7939730 104.1275030  24.7129101
  22.1443241 105.0103885  23.6687121  24.4833860 103.8737849  21.2292001
  24.1483692 103.8338619  22.1249650  23.9837805 103.2082564  20.7562411
  18.4578104  99.2805479  26.7544582  18.3197902  98.5485717  27.3556121
  19.3683027  99.1914379  26.4728769  21.0860404  98.9925438  26.2428261
  21.7960023  98.3518630  26.2014880  21.0429713  99.2438333  27.1654442
  29.0747183 105.9292791  29.1634841  29.0159729 105.2452011  28.4965424
  29.4766701 106.6711781  28.7115467  19.7989338  95.9790656  28.0623901
  19.2626695  95.5281394  28.7145497  19.2106047  96.1136565  27.3194365
  29.0764590 103.8932375  27.3948820  28.1891369 103.5558297  27.5175219
  29.6463141 103.1615406  27.6317586  15.5328460  95.1146664  25.1476895
  15.4486648  94.5072333  24.4127305  14.7111166  95.6055682  25.1486392
  22.6065744 108.5533828  24.3610063  22.5335915 109.3588799  24.8729368
  22.1643137 108.7525793  23.5358085  25.7052173  93.6000227  20.5147090
  26.2020873  92.8470189  20.1948161  24.9339155  93.6364544  19.9490300
  33.5581931  99.3040593  22.1565382  33.5471807 100.1865308  21.7859315
  32.6899310  98.9512143  21.9619919  25.0664427 108.4520662  26.5168222
  25.7792399 109.0868126  26.4444124  24.5754456 108.5484528  25.7008224
  26.7881954 102.3571914  18.0885514  25.8538233 102.4773377  17.9190218
  26.9658623 101.4544381  17.8245524  22.2887142  95.7417610  20.2418775
  21.9184930  95.1888650  20.9299681  22.7846235  95.1375744  19.6893775
  30.1754506  98.1989234  18.6235548  30.6414958  99.0317225  18.5495851
  30.6262006  97.7334215  19.3280806  20.1176341 106.2015105  27.3373793
  20.8185800 106.8351588  27.4903187  19.6471456 106.5429837  26.5769432
  28.2430737 104.5433055  15.6221700  28.5190581 104.4289649  16.5315574
  27.3735235 104.1450540  15.5833873  28.1471168  90.5669821  22.6626449
  27.2334248  90.7974047  22.8308656  28.5764270  90.6508265  23.5140482
  27.9177627  98.7559713  25.1626343  27.2649077  99.0035620  24.5078796
  28.2958007  97.9423851  24.8288821  24.8784801 108.7919406  19.2654514
  25.0607195 107.9741062  19.7282266  25.7017787 109.0087098  18.8279404
  23.9665200  99.4979524  31.6492380  23.2905837  99.3973653  32.3194756
  24.7892834  99.3418737  32.1128378  22.7087983 110.8046451  25.8849996
  23.2606291 110.9678073  26.6499082  23.0494176 111.3950889  25.2130021
  17.6852476  93.1521601  26.4871881  17.7493802  94.0136432  26.0749279
  17.6219596  92.5395602  25.7544240  17.1604748  95.2244733  30.1344915
  17.7876787  94.8421811  30.7482440  16.3032667  95.0058935  30.5000608
  27.5598857 105.6307709  31.7398651  28.1038761 106.2437667  31.2453606
  26.9785702 106.1887287  32.2565664  25.8456370 108.7528427  22.8713679
  25.7207509 107.9518166  22.3624624  26.5035461 109.2474620  22.3827648
  17.4664538  95.1077159  22.0490819  16.7451124  95.7213127  21.9098292
  18.2557794  95.6434924  21.9707465  27.9091278 106.5537447  24.4993229
  26.9621614 106.4342798  24.4271555  28.2574051 105.6659945  24.5819490
  20.2690852  92.4431586  28.3231471  20.7925253  92.6893882  29.0857780
  20.0503185  93.2751620  27.9034608  24.9137712 106.3490163  20.6997581
  24.7662674 105.4206870  20.8805151  25.7391205 106.3710254  20.2154656
  28.5171833 107.1718722  21.7862454  29.4418381 106.9661583  21.6486905
  28.3487137 106.9235123  22.6951795  21.4743397  93.3845281  26.0081141
  21.1340217  92.5853094  26.4101821  20.7682403  93.6846991  25.4357974
  22.1259869  90.4694593  24.4608464  22.9485938  89.9955071  24.3387354
  22.3697932  91.2485077  24.9607150  20.7668103  93.4982852  14.7571366
  21.4876466  93.8764104  14.2535083  20.1433407  94.2171728  14.8606344
  24.9099226  94.2028000  15.6929698  25.1262840  95.0852638  15.3918526
  24.4293293  93.8114214  14.9635340  19.6498447  97.1613714  22.2700443
  19.5043028  97.4754017  23.1624724  19.1723651  97.7798614  21.7171341
  21.5094830  94.1516262  22.3181332  21.4956399  93.2557355  21.9813630
  22.2267258  94.1586925  22.9519618  23.3620961  94.5853602  24.3634460
  23.1038739  95.5070673  24.3618790  22.8306001  94.1884036  25.0534924
  28.3067150 107.6904389  17.1424545  28.4804027 107.1250812  16.3898398
  28.7996041 108.4905284  16.9604035  14.1244109  99.7019058  25.2088104
  13.5797578 100.4778866  25.3408378  15.0023459 100.0489863  25.0507225
  20.9131726  93.0330642  17.5868902  21.0347637  92.1047288  17.7859790
  20.6233768  93.0469328  16.6747218  23.7822917  90.7185552  20.7235622
  23.8044613  90.7824886  19.7687602  24.1990976  89.8790061  20.9176128
  34.1606541 100.4540812  18.7614845  34.6037687  99.7048137  18.3633968
  33.2833051 100.4450948  18.3788577  14.9110131  98.8288954  28.1018261
  14.1691867  98.9771590  28.6882891  14.5902876  99.0897220  27.2385010
  31.1933745 104.4570859  15.7708774  31.7185069 104.7958132  15.0458094
  31.1056098 103.5217874  15.5871909  22.8553794 108.3704933  27.8998651
  23.1640920 108.1254079  28.7721350  23.6529276 108.5751571  27.4117521
  20.3248278 106.0680851  22.2026329  19.7028287 105.4051556  21.9028557
  20.9953145 106.0941983  21.5199977  20.3972806  94.5462639  31.7958835
  20.4460961  95.4224762  31.4136605  20.9395320  94.0040032  31.2230478
  30.8827651 105.0903763  31.0759972  30.0923195 105.0727901  30.5364471
  30.6461006 105.6292056  31.8309009  31.0025526 101.9396229  28.3892701
  31.0523531 101.7746236  29.3308223  30.8939450 101.0723488  27.9990581
  28.2929289  97.9227157  29.7052007  29.1939152  97.7833622  29.4136005
  28.3677263  98.0881612  30.6450185  22.6272094  95.2994012  28.5505194
  21.7575404  95.5927578  28.2787782  22.8631574  95.8834457  29.2712457
  32.5043723 104.3593170  28.6334722  32.2128532 104.7223151  29.4698183
  31.8915854 103.6460179  28.4548054  33.7039406 101.9246050  21.1537292
  34.5386297 102.3635854  21.3174853  33.8398534 101.4484703  20.3345538
  30.7530911  99.4825785  27.1014780  31.2285033  99.6753431  26.2933632
  29.8296477  99.5384971  26.8558164  25.3311128  91.5173629  26.0670614
  25.8493072  92.2534656  25.7417103  24.9766261  91.8237622  26.9017373
  25.5823722  87.9373911  21.5871511  25.8625476  87.2697100  22.2131937
  26.3674329  88.1303007  21.0746174  29.4532580  96.3591545  25.3343086
  30.4050003  96.4589643  25.3555310  29.2836031  95.5669814  25.8441170
  27.4746960  93.4447128  25.5202487  26.8796892  93.7252141  24.8248975
  27.1896657  93.9341029  26.2919228  31.9320658  99.5797665  24.4485385
  31.8996978  98.6413666  24.6345069  32.5421282  99.6581702  23.7151210
  32.0815147  96.3708708  24.4943669  31.5654195  95.5867165  24.3073597
  32.9655095  96.0427425  24.6590188  29.7425874  90.1149724  20.4539481
  29.5450695  89.8064812  21.3382813  30.3525579  90.8411363  20.5837411
  37.7497208 100.6413672  23.5891422  38.4800597 100.3798960  24.1499125
  37.1404154  99.9042394  23.6293490  35.8312505  98.7821534  24.1865873
  35.1045669  98.6477499  23.5782365  35.4159792  99.0898363  24.9922591
  23.6542682 102.5011464  31.9513246  24.5745691 102.6790063  32.1453293
  23.6192265 101.5567509  31.7992946  16.6504754 100.4112499  24.5936028
  16.8690764 101.3429606  24.6124061  17.0630528 100.0520473  25.3790831
  23.5708972  90.9180584  16.5811716  22.7609700  90.5727669  16.9566962
  24.2593389  90.6088128  17.1699328  25.4999520  89.9958631  18.2036013
  26.0530559  90.4154084  18.8626036  25.7369607  89.0694379  18.2458969
  21.5232620  95.9845704  33.9838776  21.4229346  96.9340061  33.9150868
  21.3054162  95.6563943  33.1114847  28.8778327  92.1059156  17.7114677
  28.2976996  92.7643960  17.3292729  28.6114260  91.2836501  17.3002094
  27.3281894  91.5064214  19.9135997  27.8281672  91.6180748  19.1050316
  27.9717502  91.2025266  20.5536806  21.3863890  99.4142843  32.8003838
  20.9030971 100.2143203  33.0067727  21.4724829  99.4250788  31.8471282
  17.3137227 103.3047378  24.8372272  18.2680481 103.2731320  24.7702203
  17.1149751 102.8438002  25.6522498  17.9036609 101.8748494  27.4043070
  18.7229498 102.3692573  27.4277907  18.1773417 100.9580462  27.3760637
  27.6603205  94.2659246  16.7671025  26.7729060  94.5508897  16.5491220
  28.0757194  94.1053010  15.9198302  31.0117742  94.2905767  20.4825364
  31.7878132  94.7802220  20.7549981  30.2865876  94.7163821  20.9397234
  33.4490300  95.0033387  21.5399305  34.0434791  94.7629122  20.8292613
  33.5216884  94.2840517  22.1672841  27.6344229  99.7813782  16.9821315
  27.5779431 100.2382334  16.1428948  28.1872572  99.0204467  16.8044158
  31.4449035  95.5703514  17.8071435  31.1885969  95.1700150  18.6379642
  30.8201903  96.2847308  17.6821574  35.7561373  98.3099587  20.3142726
  35.1960931  98.3792777  21.0874288  35.1504876  98.1340572  19.5942222
  28.3679008 100.9718563  14.2773844  28.3127812 100.8062835  13.3362289
  27.7425064 101.6794596  14.4336034  13.1571523  96.2086628  28.1035267
  13.8030387  95.6985582  28.5922492  12.9488675  96.9455310  28.6778692
  25.6824916 103.2767475  33.6027407  26.5516075 103.4508128  33.2414042
  25.2031667 104.0961892  33.4803137  21.6775134  90.4726672  13.8559163
  21.6653804  91.4168512  14.0127434  22.5698556  90.2896818  13.5618624
  19.8511096 110.3964576  25.2816841  20.7538343 110.4288187  25.5983336
  19.6248466 109.4665027  25.2963177  25.4927253  87.0669449  18.1105100
  24.7259649  86.5127936  18.2561782  25.9037958  87.1391318  18.9719251
  17.4969014  93.3554245  32.2010281  18.3600476  92.9991050  32.4113605
  16.9234425  93.0168140  32.8885685  37.3417391 114.9856101  23.0072682
  37.9795801 114.8662849  22.3036022  37.2238234 115.9336945  23.0660634
  34.1507098 114.9383529  22.9434207  33.8125609 114.8224594  22.0554741
  35.0196866 114.5374694  22.9235213  34.6326881 116.0918381  28.9020412
  34.6215521 115.6971179  28.0300916  34.7947520 115.3584454  29.4954184
  36.8958660 112.7107555  20.0825890  37.6821749 112.2926978  19.7316307
  37.1597364 113.6153647  20.2507538  42.2967087 112.6482788  20.9858868
  43.0292259 112.0782005  21.2196698  41.5406443 112.2604389  21.4265374
  33.9143207 115.0710030  18.1822211  33.5501414 114.5440651  18.8935132
  34.7710323 114.6808499  18.0088696  39.8192507 106.3604362  25.4453477
  39.4875832 107.2299773  25.2214692  39.2238121 106.0440646  26.1247507
  39.7121171 111.0799449  22.5246827  38.8038048 111.0114857  22.2305588
  39.6608766 111.5571394  23.3528653  33.7862036 112.4989094  30.4681724
  33.0095370 113.0583014  30.4584589  34.4252599 112.9845877  30.9896594
  41.5782817 109.2815887  24.3024701  40.9357197 109.5748420  23.6564496
  41.0737746 109.1668807  25.1077898  39.2322981 113.0279060  14.9910560
  40.1440837 113.2606447  14.8158258  38.7232628 113.6116104  14.4285639
  37.5163748 117.4503688  28.6271853  37.9247104 117.0086099  27.8826485
  36.7941010 116.8756316  28.8806046  33.8694818 112.3876295  26.0005410
  34.7156014 112.8115708  26.1440059  33.8093456 111.7309919  26.6943973
  37.0194264 110.0480663  27.6586583  36.7755196 110.8022724  27.1220859
  37.2954194 110.4266011  28.4933830  38.9732727 116.5919276  26.3363849
  39.1849622 117.2351035  25.6598230  38.9262475 115.7581592  25.8685779
  36.5758955 109.2037096  23.2400421  35.7143434 109.5018350  23.5317159
  36.6021390 109.4207495  22.3081454  32.3289411 113.8702439  16.4563792
  33.0313454 114.3223483  16.9237718  31.9970039 113.2286258  17.0843685
  30.7769772 112.4614196  30.8315001  30.1468433 113.1430477  31.0650398
  30.6705860 112.3497277  29.8868140  26.0714745 112.1285992  21.7580926
  25.2813799 112.3843520  21.2821036  26.5625992 112.9434330  21.8632966
  48.1784548 115.8129979  20.8571178  47.4248256 115.2437378  20.7015182
  48.3132089 115.7792644  21.8041813  30.0550515 106.7634962  33.1940252
  29.6617461 106.2101160  33.8687897  30.8716656 107.0745540  33.5846770
  32.9718476 108.1792841  30.7860509  33.7128190 108.7799994  30.7064971
  33.2036399 107.4370478  30.2278552  28.1159814 113.3649208  29.0638739
  28.0013329 112.4634465  29.3645838  27.2604332 113.6112905  28.7123555
  36.9175639 104.2073944  25.0624791  36.5739909 105.0975585  24.9863901
  37.2854602 104.0175601  24.1994376  36.8825922 114.1982555  13.5697226
  36.3672545 114.9687159  13.8085613  36.6103230 113.5247691  14.1930287
  34.4673033 109.0432256  18.6282464  33.6114629 108.6539106  18.4488103
  34.8799985 109.1224216  17.7682250  35.9972180 106.5778599  23.0274024
  35.4936975 106.5408734  22.2141829  36.2902786 107.4871342  23.0870681
  32.2415065 106.6617329  22.0340206  33.1068062 106.4660137  21.6746095
  32.3092574 106.4327680  22.9609562  41.8560196 116.9514909  15.5050399
  41.0789639 116.6126069  15.0605561  42.5351677 116.9567533  14.8305364
  36.6712225 112.0709647  15.3957007  36.3662361 112.3855796  16.2467150
  37.6242667 112.1491067  15.4384340  40.0951503 116.4248891  22.1617007
  39.4375177 117.1148152  22.2497136  40.8991902 116.8145323  22.5050994
  29.8477384 108.8919536  19.4056572  30.4221136 108.6694718  18.6729765
  30.4348367 108.9608231  20.1585174  38.9056962 114.7793263  20.2120949
  39.4188843 115.4123255  20.7142659  39.5558186 114.1794459  19.8464309
  32.1500052 105.7660785  18.1331642  31.4964465 105.4509803  17.5088257
  32.1080526 105.1436526  18.8591465  35.3837793 112.2542719  22.4579290
  34.4660354 112.4757666  22.3000978  35.7997936 112.3289029  21.5990997
  36.1672840 113.6534135  17.5881970  36.9144659 114.1655532  17.2789092
  36.4364430 113.3318187  18.4486363  38.6151677 110.6891251  19.5700759
  37.8774434 110.1768637  19.9011002  38.8678451 110.2491632  18.7584036
  38.7163305 103.4667503  20.1642528  39.0222182 102.6064866  19.8768443
  39.4415910 104.0585123  19.9641522  32.9884385 113.7621296  20.6718719
  33.0432994 112.8095132  20.5961196  32.1775587 113.9180735  21.1560018
  30.9276744 112.3798356  18.4309098  30.1144610 112.6792526  18.8374290
  31.4235739 111.9854044  19.1483581  36.5250956 112.8440180  27.2623992
  36.8800344 113.0711653  28.1218458  37.1723087 113.1758557  26.6401247
  42.2548693 115.9658616  17.9673321  42.1166592 116.1560212  17.0394510
  41.8984912 116.7277999  18.4241372  30.4190819 109.9516711  24.0470333
  31.0590199 109.8105470  23.3493297  29.5868350 109.6651225  23.6708935
  42.2818073 118.0335143  22.9784593  42.7154579 117.9410432  23.8267647
  42.9949653 118.0092643  22.3404609  27.4219436 109.9217036  18.8243320
  27.6826253 110.8362369  18.7152480  28.2436608 109.4541479  18.9739933
  28.8944361 111.3354793  25.9942145  29.5667414 111.1272155  25.3454793
  28.0674147 111.1376879  25.5547377  43.1433622 118.0758844  25.5117478
  43.3369512 118.9804654  25.7576753  43.0434240 117.6166263  26.3456063
  34.7969933 107.9616734  28.0107805  34.1497848 108.6606684  27.9172282
  35.5670948 108.3952878  28.3784054  34.9734067 115.7997499  26.0704625
  35.9026127 115.9508659  25.8973592  34.5525097 115.8881520  25.2153272
  29.2971858 114.6097396  26.7544582  29.1591656 113.8777635  27.3556121
  30.2076782 114.5206296  26.4728769  31.9254159 114.3217356  26.2428261
  32.6353777 113.6810548  26.2014880  31.8823467 114.5730250  27.1654442
  30.6383093 111.3082573  28.0623901  30.1020450 110.8573312  28.7145497
  30.0499801 111.4428482  27.3194365  26.3722214 110.4438581  25.1476895
  26.2880403 109.8364251  24.4127305  25.5504920 110.9347600  25.1486392
  36.5445928 108.9292145  20.5147090  37.0414627 108.1762107  20.1948161
  35.7732909 108.9656461  19.9490300  44.3975685 114.6332510  22.1565382
  44.3865562 115.5157226  21.7859315  43.5293065 114.2804061  21.9619919
  33.1280897 111.0709528  20.2418775  32.7578684 110.5180568  20.9299681
  33.6239989 110.4667661  19.6893775  41.0148260 113.5281151  18.6235548
  41.4808712 114.3609143  18.5495851  41.4655760 113.0626133  19.3280806
  38.9864923 105.8961738  22.6626449  38.0728003 106.1265965  22.8308656
  39.4158024 105.9800182  23.5140482  38.7571381 114.0851630  25.1626343
  38.1042831 114.3327538  24.5078796  39.1351761 113.2715768  24.8288821
  34.8058954 114.8271441  31.6492380  34.1299591 114.7265571  32.3194756
  35.6286588 114.6710655  32.1128378  28.5246230 108.4813518  26.4871881
  28.5887557 109.3428349  26.0749279  28.4613351 107.8687520  25.7544240
  27.9998503 110.5536651  30.1344915  28.6270542 110.1713728  30.7482440
  27.1426422 110.3350853  30.5000608  28.3058293 110.4369077  22.0490819
  27.5844878 111.0505044  21.9098292  29.0951548 110.9726842  21.9707465
  31.1084606 107.7723503  28.3231471  31.6319008 108.0185800  29.0857780
  30.8896939 108.6043538  27.9034608  32.3137151 108.7137198  26.0081141
  31.9733972 107.9145011  26.4101821  31.6076157 109.0138909  25.4357974
  32.9653623 105.7986511  24.4608464  33.7879692 105.3246989  24.3387354
  33.2091687 106.5776995  24.9607150  31.6061858 108.8274769  14.7571366
  32.3270220 109.2056022  14.2535083  30.9827162 109.5463646  14.8606344
  35.7492980 109.5319918  15.6929698  35.9656595 110.4144556  15.3918526
  35.2687048 109.1406132  14.9635340  30.4892202 112.4905631  22.2700443
  30.3436783 112.8045934  23.1624724  30.0117405 113.1090532  21.7171341
  32.3488585 109.4808179  22.3181332  32.3350153 108.5849273  21.9813630
  33.0661013 109.4878843  22.9519618  34.2014715 109.9145520  24.3634460
  33.9432493 110.8362590  24.3618790  33.6699756 109.5175954  25.0534924
  31.7525481 108.3622560  17.5868902  31.8741392 107.4339206  17.7859790
  31.4627523 108.3761246  16.6747218  34.6216671 106.0477470  20.7235622
  34.6438368 106.1116803  19.7687602  35.0384730 105.2081979  20.9176128
  45.0000295 115.7832730  18.7614845  45.4431441 115.0340055  18.3633968
  44.1226806 115.7742866  18.3788577  31.2366560 109.8754557  31.7958835
  31.2854716 110.7516680  31.4136605  31.7789074 109.3331950  31.2230478
  41.8419281 117.2688147  28.3892701  41.8917286 117.1038154  29.3308223
  41.7333204 116.4015406  27.9990581  39.1323043 113.2519075  29.7052007
  40.0332906 113.1125540  29.4136005  39.2071018 113.4173530  30.6450185
  33.4665849 110.6285929  28.5505194  32.5969158 110.9219495  28.2787782
  33.7025329 111.2126374  29.2712457  44.5433160 117.2537968  21.1537292
  45.3780051 117.6927772  21.3174853  44.6792289 116.7776621  20.3345538
  41.5924666 114.8117703  27.1014780  42.0678788 115.0045349  26.2933632
  40.6690231 114.8676889  26.8558164  36.1704882 106.8465546  26.0670614
  36.6886826 107.5826573  25.7417103  35.8160015 107.1529540  26.9017373
  36.4217477 103.2665829  21.5871511  36.7019230 102.5989018  22.2131937
  37.2068084 103.4594924  21.0746174  40.2926335 111.6883463  25.3343086
  41.2443758 111.7881561  25.3555310  40.1229785 110.8961731  25.8441170
  38.3140714 108.7739046  25.5202487  37.7190647 109.0544059  24.8248975
  38.0290411 109.2632947  26.2919228  42.7714413 114.9089583  24.4485385
  42.7390733 113.9705583  24.6345069  43.3815036 114.9873619  23.7151210
  42.9208901 111.7000626  24.4943669  42.4047950 110.9159083  24.3073597
  43.8048850 111.3719343  24.6590188  40.5819628 105.4441642  20.4539481
  40.3844449 105.1356730  21.3382813  41.1919334 106.1703280  20.5837411
  48.5890963 115.9705589  23.5891422  49.3194351 115.7090878  24.1499125
  47.9797908 115.2334311  23.6293490  46.6706260 114.1113452  24.1865873
  45.9439423 113.9769417  23.5782365  46.2553547 114.4190281  24.9922591
  34.4102726 106.2472502  16.5811716  33.6003455 105.9019587  16.9566962
  35.0987143 105.9380045  17.1699328  36.3393275 105.3250548  18.2036013
  36.8924313 105.7446002  18.8626036  36.5763361 104.3986297  18.2458969
  32.3626374 111.3137622  33.9838776  32.2623101 112.2631979  33.9150868
  32.1447916 110.9855861  33.1114847  39.7172082 107.4351074  17.7114677
  39.1370751 108.0935878  17.3292729  39.4508015 106.6128418  17.3002094
  38.1675648 106.8356131  19.9135997  38.6675427 106.9472666  19.1050316
  38.8111256 106.5317184  20.5536806  32.2257644 114.7434761  32.8003838
  31.7424726 115.5435121  33.0067727  32.3118583 114.7542706  31.8471282
  38.4996960 109.5951164  16.7671025  37.6122815 109.8800815  16.5491220
  38.9150949 109.4344927  15.9198302  41.8511496 109.6197685  20.4825364
  42.6271886 110.1094137  20.7549981  41.1259630 110.0455739  20.9397234
  44.2884055 110.3325304  21.5399305  44.8828545 110.0921040  20.8292613
  44.3610638 109.6132435  22.1672841  38.4737984 115.1105700  16.9821315
  38.4173185 115.5674251  16.1428948  39.0266326 114.3496385  16.8044158
  42.2842790 110.8995432  17.8071435  42.0279724 110.4992067  18.6379642
  41.6595658 111.6139226  17.6821574  46.5955127 113.6391505  20.3142726
  46.0354685 113.7084694  21.0874288  45.9898631 113.4632490  19.5942222
  39.2072763 116.3010481  14.2773844  39.1521567 116.1354753  13.3362289
  38.5818818 117.0086514  14.4336034  23.9965278 111.5378546  28.1035267
  24.6424142 111.0277500  28.5922492  23.7882429 112.2747227  28.6778692
  32.5168888 105.8018590  13.8559163  32.5047558 106.7460430  14.0127434
  33.4092310 105.6188736  13.5618624  36.3321008 102.3961367  18.1105100
  35.5653404 101.8419854  18.2561782  36.7431713 102.4683236  18.9719251
  28.3362769 108.6846163  32.2010281  29.1994230 108.3282967  32.4113605
  27.7628180 108.3460057  32.8885685  47.7569394 119.5365861  25.0624791
  47.4133663 120.4267503  24.9863901  48.1248356 119.3467519  24.1994376
  49.5557059 118.7959420  20.1642528  49.8615936 117.9356784  19.8768443
  50.2809664 119.3877041  19.9641522  49.8258677 121.2253656  22.6626449
  48.9121757 121.4557883  22.8308656  50.2551779 121.3092100  23.5140482
  47.2611231 118.5957747  21.5871511  47.5412985 117.9280936  22.2131937
  48.0461838 118.7886842  21.0746174  51.4213383 120.7733559  20.4539481
  51.2238204 120.4648647  21.3382813  52.0313088 121.4995198  20.5837411
  47.1787029 120.6542466  18.2036013  47.7318068 121.0737920  18.8626036
  47.4157116 119.7278214  18.2458969  47.1714762 117.7253284  18.1105100
  46.4047158 117.1711771  18.2561782  47.5825467 117.7975153  18.9719251
   2.6770390  52.3253318  17.3871546   2.2334244  51.5389696  17.0692450
   3.3387603  52.5132468  16.7215437   4.7751628  52.6056118  15.4152947
   4.7570103  53.4264999  14.9233216   5.6971548  52.4810193  15.6403088
   5.6867469  49.2451956  17.8103665   5.5352975  49.0162508  16.8933749
   5.6772148  50.2022557  17.8235010   7.3959675  52.2771079  15.8880147
   7.3372221  51.5930299  15.2210730   7.7979194  53.0190069  15.4360773
   5.8811349  51.9785996  18.4643957   6.4251253  52.5915954  17.9698912
   5.2998194  52.5365574  18.9810970   9.2040144  51.4382050  17.8005279
   8.4135687  51.4206189  17.2609778   8.9673498  51.9770344  18.5554315
  10.8256215  50.7071458  15.3580029  10.5341024  51.0701438  16.1943490
  10.2128347  49.9938466  15.1793361   4.0037408  49.6245763  20.3272714
   4.8728568  49.7986415  19.9659349   3.5244159  50.4440179  20.2048443
  15.6629884  61.3334389   9.7317989  16.3008294  61.2141136   9.0281329
  15.5450727  62.2815232   9.7905941  12.4719590  61.2861817   9.6679513
  12.1338101  61.1702881   8.7800048  13.3409358  60.8852982   9.6480519
  12.9539373  62.4396668  15.6265719  12.9428014  62.0449467  14.7546222
  13.1160012  61.7062741  16.2199490   9.6746634  65.2233780  14.5744903
   9.3836500  66.1279411  14.4591569  10.3103618  65.2650308  15.2888972
  10.6002841  62.6010629  11.1646262  11.1966413  62.3766651  10.4503225
  10.6577812  61.8595374  11.7671710  20.6179579  58.9961076   7.7104175
  21.3504751  58.4260292   7.9442005  19.8618935  58.6082676   8.1510681
  18.1405000  52.7082650  12.1698784  17.8088324  53.5778061  11.9459999
  17.5450613  52.3918934  12.8492814  14.6336519  64.9095196  11.5694696
  14.3337242  65.8120234  11.4610504  14.2887579  64.6427379  12.4215849
  18.0333663  57.4277736   9.2492134  17.1250540  57.3593144   8.9550895
  17.9821259  57.9049681  10.0773959  12.1074529  58.8467381  17.1927031
  11.3307863  59.4061302  17.1829896  12.7465092  59.3324164  17.7141901
  19.8995309  55.6294174  11.0270008  19.2569690  55.9226707  10.3809802
  19.3950238  55.5147095  11.8323204  10.3620901  61.6552835  16.7544998
  11.1035585  62.1937879  16.4779822   9.6557886  62.2819124  16.9116550
  15.8376241  63.7981975  15.3517159  16.2459597  63.3564386  14.6071792
  15.1153502  63.2234603  15.6051352  12.1907311  58.7354582  12.7250716
  13.0368506  59.1593996  12.8685365  12.1305948  58.0788206  13.4189280
  16.1605055  64.3583166   9.1069448  15.5313918  64.5228880   8.4045516
  15.7730717  64.7724775   9.8780412  20.0394287  65.2937604   6.4613812
  19.3545325  65.6736505   5.9110845  20.1238136  65.9032930   7.1945760
  15.3406756  56.3958950  14.3831890  15.0967688  57.1501011  13.8466166
  15.6166687  56.7744298  15.2179137  17.2945219  62.9397563  13.0609156
  17.5062114  63.5829323  12.3843537  17.2474967  62.1059879  12.5931086
  11.7133017  64.0957574   6.3719533  12.1771363  64.3745277   5.5824156
  11.4489815  63.1941019   6.1892624   8.6057098  63.6429056   9.3099297
   9.1758455  64.0716324   8.6716781   9.1965210  63.3611640  10.0083482
   9.0982265  58.8092483  17.5560308   8.4680925  59.4908764  17.7895705
   8.9918353  58.6975565  16.6113446  18.4091047  65.8169518  11.2331513
  19.2308490  65.4149705  10.9514195  18.4053450  65.7137752  12.1847629
  12.1747650  65.3653562  13.3892224  12.2392083  65.8273969  14.2250395
  11.4658574  64.7350926  13.5174533  26.4997040  62.1608267   7.5816484
  25.7460748  61.5915665   7.4260489  26.6344581  62.1270931   8.5287119
   8.3763007  53.1113249  19.9185559   7.9829953  52.5579447  20.5933203
   9.1929148  53.4223827  20.3092077  11.2930968  54.5271128  17.5105816
  12.0340682  55.1278281  17.4310278  11.5248891  53.7848766  16.9523858
   6.4372306  59.7127495  15.7884045   6.3225822  58.8112752  16.0891144
   5.5816824  59.9591192  15.4368862  13.5164144  67.6545236  17.3871546
  13.0727998  66.8681614  17.0692450  14.1781358  67.8424386  16.7215437
   8.2751265  69.1841037  11.9132224   8.8258691  69.0558100  11.1409218
   7.4362741  69.4835926  11.5627117  15.6145382  67.9348035  15.4152947
  15.5963858  68.7556916  14.9233216  16.5365302  67.8102111  15.6403088
  12.0718436  65.4492165  16.2576456  12.6046773  64.6880453  16.0275764
  11.5432518  65.1565817  17.0000610  18.4163995  62.7727178   8.8862314
  17.7587670  63.4626439   8.9742442  19.2204394  63.1623610   9.2296300
  17.2269454  61.1271551   6.9366256  17.7401336  61.7601542   7.4387965
  17.8770678  60.5272746   6.5709616  13.7050285  58.6021006   9.1824596
  12.7872846  58.8235953   9.0246284  14.1210428  58.6767317   8.3236303
  17.9931250  66.1077552   5.0645398  17.5393577  65.2668462   5.1210589
  17.3625217  66.7438950   5.4020178  16.4364189  67.9454049   5.9995216
  16.7287164  68.5059106   5.2807582  16.9462810  68.2382610   6.7548375
  14.8463448  59.1918467  13.9869299  15.2012836  59.4189940  14.8463765
  15.4935580  59.5236844  13.3646554  20.5761185  62.3136903   4.6918628
  20.4379084  62.5038499   3.7639817  20.2197404  63.0756286   5.1486679
  20.6030565  64.3813430   9.7029899  21.0367072  64.2888719  10.5512953
  21.3162146  64.3570931   9.0649915  14.3358460  67.9815524  11.2363000
  14.3895482  68.5506461  12.0040716  13.4673241  68.1517409  10.8717037
   7.2156853  57.6833081  12.7187451   7.8879907  57.4750443  12.0700100
   6.3886640  57.4855167  12.2792683  21.4646115  64.4237131  12.2362785
  21.6582005  65.3282941  12.4822060  21.3646733  63.9644550  13.0701370
  13.1182425  54.3095021  14.7353112  12.4710340  55.0084971  14.6417588
  13.8883441  54.7431165  15.1029360  16.5261223  64.5743874  17.8103665
  16.3746730  64.3454425  16.8933749  16.5165903  65.5314475  17.8235010
  13.2946560  62.1475786  12.7949932  14.2238620  62.2986946  12.6218899
  12.8737590  62.2359807  11.9398578  12.0934891  66.1726451  10.5648469
  11.9545977  65.8045235  11.4374408  11.3049488  66.6874090  10.3932427
  13.6440107  65.5508053   7.9537307  13.3089939  65.5108823   8.8494957
  13.1444052  64.8852769   7.4807717   7.6184350  60.9575684  13.4789888
   7.4804148  60.2255922  14.0801427   8.5289274  60.8684584  13.1974076
  10.2466651  60.6695643  12.9673568  10.9566270  60.0288835  12.9260186
  10.2035959  60.9208538  13.8899749  18.2353430  67.6062996  15.8880147
  18.1765976  66.9222216  15.2210730  18.6372948  68.3481986  15.4360773
   8.9595585  57.6560861  14.7869207   8.4232942  57.2051599  15.4390804
   8.3712294  57.7906770  14.0439672  18.2370837  65.5702580  14.1194127
  17.3497616  65.2328502  14.2420526  18.8069388  64.8385611  14.3562892
  11.7671991  70.2304032  11.0855370  11.6942162  71.0359004  11.5974675
  11.3249384  70.4295998  10.2603391  22.7188178  60.9810797   8.8810689
  22.7078054  61.8635513   8.5104622  21.8505557  60.6282348   8.6865226
  14.2270674  70.1290867  13.2413529  14.9398646  70.7638331  13.1689430
  13.7360703  70.2254732  12.4253531  15.9488201  64.0342119   4.8130820
  15.0144480  64.1543582   4.6435525  16.1264869  63.1314586   4.5490830
  19.3360752  59.8759438   5.3480855  19.8021204  60.7087430   5.2741157
  19.7868253  59.4104420   6.0526113   9.2782588  67.8785310  14.0619100
   9.9792047  68.5121793  14.2148494   8.8077703  68.2200042  13.3014739
  17.0783874  60.4329917  11.8871650  16.4255324  60.6805825  11.2324103
  17.4564253  59.6194056  11.5534127  14.0391047  70.4689611   5.9899820
  14.2213442  69.6511267   6.4527573  14.8624033  70.6857303   5.5524710
  13.1271447  61.1749728  18.3737687  12.4512084  61.0743858  19.0440062
  13.9499080  61.0188942  18.8373684  11.8694229  72.4816656  12.6095303
  12.4212537  72.6448277  13.3744388  12.2100423  73.0721094  11.9375328
   6.3210995  56.9014938  16.8590222   6.9483034  56.5192016  17.4727746
   5.4638914  56.6829140  17.2245914  16.7205104  67.3077913  18.4643957
  17.2645008  67.9207872  17.9698912  16.1391949  67.8657492  18.9810970
  15.0062617  70.4298631   9.5958985  14.8813756  69.6288371   9.0869931
  15.6641708  70.9244825   9.1072955  17.0697525  68.2307652  11.2238535
  16.1227861  68.1113003  11.1516862  17.4180298  67.3430150  11.3064797
   9.4297098  54.1201790  15.0476777   9.9531500  54.3664087  15.8103086
   9.2109432  54.9521825  14.6279914  14.0743958  68.0260368   7.4242887
  13.9268921  67.0977075   7.6050458  14.8997452  68.0480458   6.9399963
  17.6778080  68.8488926   8.5107760  18.6024628  68.6431788   8.3732211
  17.5093384  68.6005328   9.4197102  10.6349644  55.0615486  12.7326448
  10.2946464  54.2623299  13.1347128   9.9288650  55.3617196  12.1603281
  12.5227208  56.2623807  11.0879766  12.2644985  57.1840877  11.0864097
  11.9912248  55.8654241  11.7780230  17.4673396  69.3674594   3.8669852
  17.6410274  68.8021016   3.1143704  17.9602288  70.1675489   3.6849342
   3.2850356  61.3789263  11.9333410   2.7403824  62.1549071  12.0653685
   4.1629706  61.7260067  11.7752532  23.3212788  62.1311017   5.4860151
  23.7643934  61.3818342   5.0879275  22.4439298  62.1221153   5.1033883
   4.0716378  60.5059159  14.8263567   3.3298114  60.6541795  15.4128198
   3.7509122  60.7667425  13.9630317  20.3539992  66.1341064   2.4954081
  20.8791316  66.4728337   1.7703401  20.2662345  65.1988079   2.3117215
  12.0160041  70.0475138  14.6243957  12.3247167  69.8024284  15.4966657
  12.8135523  70.2521776  14.1362828   9.4854525  67.7451056   8.9271636
   8.8634534  67.0821761   8.6273863  10.1559392  67.7712188   8.2445283
   9.5579052  56.2232844  18.5204142   9.6067208  57.0994967  18.1381911
  10.1001567  55.6810237  17.9475785  20.0433898  66.7673968  17.8005279
  19.2529442  66.7498106  17.2609778  19.8067253  67.3062261  18.5554315
  20.1631773  63.6166434  15.1138007  20.2129778  63.4516441  16.0553530
  20.0545697  62.7493693  14.7235888  17.4535536  59.5997362  16.4297314
  18.3545398  59.4603827  16.1381312  17.5283510  59.7651817  17.3695491
  11.7878341  56.9764217  15.2750500  10.9181650  57.2697783  15.0033089
  12.0237821  57.5604662  15.9957764  21.6649970  66.0363375  15.3580029
  21.3734778  66.3993356  16.1943490  21.0522101  65.3230384  15.1793361
  22.8645652  63.6016255   7.8782599  23.6992544  64.0406059   8.0420159
  23.0004781  63.1254908   7.0590845  19.9137158  61.1595990  13.8260087
  20.3891280  61.3523636  13.0178938  18.9902724  61.2155176  13.5803470
  14.4917375  53.1943834  12.7915921  15.0099319  53.9304861  12.4662409
  14.1372507  53.5007827  13.6262680  18.6138827  58.0361750  12.0588392
  19.5656250  58.1359848  12.0800616  18.4442278  57.2440019  12.5686477
  16.6353207  55.1217333  12.2447793  16.0403139  55.4022346  11.5494282
  16.3502903  55.6111234  13.0164534  21.0926905  61.2567870  11.1730692
  21.0603225  60.3183871  11.3590376  21.7027529  61.3351907  10.4396517
  21.2421394  58.0478913  11.2188975  20.7260442  57.2637370  11.0318904
  22.1261342  57.7197630  11.3835495  26.9103455  62.3183877  10.3136729
  27.6406843  62.0569165  10.8744432  26.3010400  61.5812599  10.3538797
  24.9918752  60.4591739  10.9111180  24.2651916  60.3247704  10.3027672
  24.5766039  60.7668568  11.7167898  12.8148928  64.1781669  18.6758553
  13.7351938  64.3560268  18.8698600  12.7798511  63.2337714  18.5238252
   5.8111001  62.0882704  11.3181334   6.0297011  63.0199811  11.3369368
   6.2236775  61.7290678  12.1036138  10.6838866  57.6615909  20.7084083
  10.5835593  58.6110266  20.6396174  10.4660408  57.3334148  19.8360153
  10.5470136  61.0913048  19.5249145  10.0637218  61.8913408  19.7313034
  10.6331075  61.1020993  18.5716589   6.4743474  64.9817583  11.5617579
   7.4286727  64.9501525  11.4947510   6.2755997  64.5208207  12.3767804
   7.0642856  63.5518699  14.1288376   7.8835745  64.0462778  14.1523214
   7.3379664  62.6350667  14.1005944  20.1723988  55.9675972   7.2070671
  20.9484378  56.4572425   7.4795288  19.4472122  56.3934026   7.6642540
  22.6096547  56.6803591   8.2644612  23.2041038  56.4399327   7.5537920
  22.6823131  55.9610722   8.8918148  24.9167620  59.9869792   7.0388033
  24.3567178  60.0562982   7.8119595  24.3111123  59.8110777   6.3187529
   2.3177770  57.8856833  14.8280573   2.9636634  57.3755787  15.3167798
   2.1094921  58.6225514  15.4023999  14.8431162  64.9537680  20.3272714
  15.7122322  65.1278333  19.9659349  14.3637914  65.7732097  20.2048443
   9.0117343  72.0734781  12.0062147   9.9144589  72.1058392  12.3228642
   8.7854713  71.1435232  12.0208483   6.6575261  55.0324450  18.9255588
   7.5206723  54.6761255  19.1358912   6.0840672  54.6938345  19.6130992
  26.5023638  76.6626306   9.7317989  27.1402048  76.5433054   9.0281329
  26.3844481  77.6107150   9.7905941  23.3113344  76.6153734   9.6679513
  22.9731856  76.4994799   8.7800048  24.1803113  76.2144899   9.6480519
  23.7933127  77.7688586  15.6265719  23.7821768  77.3741384  14.7546222
  23.9553767  77.0354659  16.2199490  20.5140389  80.5525698  14.5744903
  20.2230255  81.4571329  14.4591569  21.1497373  80.5942225  15.2888972
  21.4396595  77.9302546  11.1646262  22.0360168  77.7058569  10.4503225
  21.4971567  77.1887292  11.7671710  26.0564907  74.3877760   6.8071197
  26.8427996  73.9697183   6.4561614  26.3203611  75.2923852   6.9752845
  31.4573334  74.3252993   7.7104175  32.1898506  73.7552210   7.9442005
  30.7012689  73.9374594   8.1510681  23.0749453  76.7480235   4.9067518
  22.7107661  76.2210856   5.6180439  23.9316569  76.3578704   4.7334003
  28.9798754  68.0374567  12.1698784  28.6482079  68.9069978  11.9459999
  28.3844367  67.7210851  12.8492814  25.4730274  80.2387113  11.5694696
  25.1730997  81.1412152  11.4610504  25.1281333  79.9719297  12.4215849
  18.9242755  76.6900910   7.6031401  17.9993252  76.5577124   7.8109093
  19.1727168  77.4695129   8.1001343  28.8727417  72.7569654   9.2492134
  27.9644295  72.6885062   8.9550895  28.8215013  73.2341598  10.0773959
  22.9468283  74.1759299  17.1927031  22.1701617  74.7353219  17.1829896
  23.5858846  74.6616082  17.7141901  30.7389064  70.9586092  11.0270008
  30.0963444  71.2518625  10.3809802  30.2343992  70.8439012  11.8323204
  28.3929227  74.7049265   1.7155867  29.3047084  74.9376652   1.5403564
  27.8838875  75.2886309   1.1530946  21.2014655  76.9844752  16.7544998
  21.9429340  77.5229796  16.4779822  20.4951641  77.6111041  16.9116550
  26.6769995  79.1273893  15.3517159  27.0853351  78.6856303  14.6071792
  25.9547257  78.5526520  15.6051352  23.0301065  74.0646500  12.7250716
  23.8762260  74.4885913  12.8685365  22.9699703  73.4080124  13.4189280
  26.9998810  79.6875084   9.1069448  26.3707672  79.8520798   8.4045516
  26.6124472  80.1016693   9.8780412  30.8788042  80.6229521   6.4613812
  30.1939080  81.0028423   5.9110845  30.9631891  81.2324848   7.1945760
  26.1800511  71.7250868  14.3831890  25.9361442  72.4792929  13.8466166
  26.4560441  72.1036216  15.2179137  28.1338973  78.2689480  13.0609156
  28.3455869  78.9121240  12.3843537  28.0868722  77.4351797  12.5931086
  25.7365202  70.8807301   9.9645728  24.8749681  71.1788555  10.2562465
  25.7627637  71.0977700   9.0326760  22.5526772  79.4249492   6.3719533
  23.0165117  79.7037195   5.5824156  22.2883570  78.5232936   6.1892624
  19.4450853  78.9720973   9.3099297  20.0152210  79.4008242   8.6716781
  20.0358965  78.6903558  10.0083482  21.4895658  75.5472644   3.1809099
  22.1919701  75.9993688   3.6483025  21.1576286  74.9056463   3.8088992
  19.9376019  74.1384401  17.5560308  19.3074680  74.8200682  17.7895705
  19.8312107  74.0267482  16.6113446  15.2320992  73.8056197   8.4826232
  14.4420046  74.0613725   8.0066343  15.7232239  74.6204535   8.5878273
  29.2484801  81.1461436  11.2331513  30.0702245  80.7441623  10.9514195
  29.2447204  81.0429670  12.1847629  23.0141405  80.6945479  13.3892224
  23.0785837  81.1565886  14.2250395  22.3052329  80.0642844  13.5174533
  13.5158695  74.0586687  10.9141223  13.7666733  74.9433697  11.1798799
  14.0518243  73.8791289  10.1416315  37.3390794  77.4900184   7.5816484
  36.5854503  76.9207582   7.4260489  37.4738335  77.4562849   8.5287119
  19.2156762  68.4405167  19.9185559  18.8223708  67.8871365  20.5933203
  20.0322902  68.7515745  20.3092077  22.1324723  69.8563046  17.5105816
  22.8734436  70.4570199  17.4310278  22.3642646  69.1140683  16.9523858
  17.2766061  75.0419413  15.7884045  17.1619576  74.1404670  16.0891144
  16.4210579  75.2883110  15.4368862  24.3557899  82.9837153  17.3871546
  23.9121753  82.1973532  17.0692450  25.0175112  83.1716304  16.7215437
  19.1145020  84.5132955  11.9132224  19.6652445  84.3850018  11.1409218
  18.2756496  84.8127844  11.5627117  26.4539137  83.2639953  15.4152947
  26.4357612  84.0848834  14.9233216  27.3759057  83.1394028  15.6403088
  22.9112191  80.7784083  16.2576456  23.4440528  80.0172371  16.0275764
  22.3826272  80.4857734  17.0000610  26.0781886  65.8844149  11.7870097
  25.7346155  66.7745790  11.7109208  26.4460848  65.6945806  10.9239682
  26.0432169  75.8752760   0.2942532  25.5278792  76.6457364   0.5330920
  25.7709477  75.2017896   0.9175594  23.6279280  70.7202460   5.3527771
  22.7720876  70.3309311   5.1733409  24.0406231  70.7994421   4.4927556
  25.1578426  68.2548804   9.7519331  24.6543222  68.2178939   8.9387136
  25.4509033  69.1641546   9.8115987  21.4021312  68.3387533   8.7585512
  22.2674309  68.1430342   8.3991402  21.4698821  68.1097885   9.6854869
  31.0166443  78.6285114   2.2295706  30.2395886  78.2896274   1.7850868
  31.6957924  78.6337737   1.5550671  25.8318472  73.7479852   2.1202314
  25.5268607  74.0626001   2.9712457  26.7848914  73.8261272   2.1629647
  29.2557750  78.1019096   8.8862314  28.5981424  78.7918357   8.9742442
  30.0598149  78.4915527   9.2296300  19.0083631  70.5689741   6.1301879
  19.5827383  70.3464923   5.3975072  19.5954614  70.6378436   6.8830480
  28.0663208  76.4563468   6.9366256  28.5795090  77.0893460   7.4387965
  28.7164432  75.8564664   6.5709616  21.3106299  67.4430990   4.8576949
  20.6570711  67.1280007   4.2333563  21.2686773  66.8206731   5.5836771
  24.5444039  73.9312924   9.1824596  23.6266601  74.1527871   9.0246284
  24.9604183  74.0059234   8.3236303  25.3279087  75.3304339   4.3127276
  26.0750906  75.8425737   4.0034398  25.5970677  75.0088392   5.1731670
  28.8325005  81.4369470   5.0645398  28.3787332  80.5960380   5.1210589
  28.2018971  82.0730868   5.4020178  27.7757924  72.3661456   6.2946066
  27.0380681  71.8538842   6.6256308  28.0284698  71.9261837   5.4829343
  27.2757944  83.2745966   5.9995216  27.5680918  83.8351023   5.2807582
  27.7856564  83.5674527   6.7548375  27.8769552  65.1437708   6.8887835
  28.1828428  64.2835071   6.6013750  28.6022156  65.7355328   6.6886829
  22.1490631  75.4391501   7.3964026  22.2039241  74.4865337   7.3206503
  21.3381833  75.5950940   7.8805324  20.0882991  74.0568561   5.1554405
  19.2750857  74.3562731   5.5619597  20.5841985  73.6624249   5.8728887
  25.6857203  74.5210385  13.9869299  26.0406591  74.7481858  14.8463765
  26.3329334  74.8528762  13.3646554  31.4154940  77.6428821   4.6918628
  31.2772838  77.8330417   3.7639817  31.0591159  78.4048204   5.1486679
  19.5797066  71.6286916  10.7715640  20.2196445  71.4875675  10.0738603
  18.7474597  71.3421429  10.3954242  31.4424319  79.7105348   9.7029899
  31.8760826  79.6180637  10.5512953  32.1555900  79.6862848   9.0649915
  25.1752214  83.3107442  11.2363000  25.2289237  83.8798378  12.0040716
  24.3066996  83.4809327  10.8717037  16.5825682  71.5987241   5.5488627
  16.8432500  72.5132574   5.4397787  17.4042855  71.1311684   5.6985239
  18.0550608  73.0124998  12.7187451  18.7273661  72.8042360  12.0700100
  17.2280394  72.8147084  12.2792683  32.3039869  79.7529049  12.2362785
  32.4975759  80.6574859  12.4822060  32.2040487  79.2936468  13.0701370
  23.9576180  69.6386939  14.7353112  23.3104095  70.3376889  14.6417588
  24.7277195  70.0723083  15.1029360  27.3654978  79.9035791  17.8103665
  27.2140484  79.6746343  16.8933749  27.3559657  80.8606393  17.8235010
  24.1340314  77.4767704  12.7949932  25.0632374  77.6278864  12.6218899
  23.7131344  77.5651725  11.9398578  22.9328646  81.5018368  10.5648469
  22.7939732  81.1337153  11.4374408  22.1443242  82.0166008  10.3932427
  24.4833861  80.8799971   7.9537307  24.1483694  80.8400741   8.8494957
  23.9837807  80.2144687   7.4807717  18.4578105  76.2867601  13.4789888
  18.3197903  75.5547840  14.0801427  19.3683028  76.1976501  13.1974076
  21.0860406  75.9987561  12.9673568  21.7960024  75.3580753  12.9260186
  21.0429714  76.2500455  13.8899749  29.0747184  82.9354914  15.8880147
  29.0159730  82.2514134  15.2210730  29.4766703  83.6773904  15.4360773
  19.7989340  72.9852778  14.7869207  19.2626697  72.5343517  15.4390804
  19.2106048  73.1198687  14.0439672  29.0764592  80.8994498  14.1194127
  28.1891370  80.5620420  14.2420526  29.6463143  80.1677529  14.3562892
  15.5328461  72.1208786  11.8722202  15.4486650  71.5134456  11.1372612
  14.7111167  72.6117804  11.8731698  22.6065745  85.5595950  11.0855370
  22.5335916  86.3650922  11.5974675  22.1643138  85.7587916  10.2603391
  25.7052175  70.6062350   7.2392397  26.2020874  69.8532312   6.9193467
  24.9339156  70.6426666   6.6735606  33.5581932  76.3102715   8.8810689
  33.5471808  77.1927431   8.5104622  32.6899312  75.9574266   8.6865226
  25.0664429  85.4582784  13.2413529  25.7792401  86.0930249  13.1689430
  24.5754457  85.5546650  12.4253531  26.7881955  79.3634037   4.8130820
  25.8538234  79.4835499   4.6435525  26.9658624  78.4606504   4.5490830
  22.2887143  72.7479733   6.9664082  21.9184931  72.1950773   7.6544987
  22.7846236  72.1437866   6.4139082  30.1754507  75.2051356   5.3480855
  30.6414959  76.0379348   5.2741157  30.6262007  74.7396338   6.0526113
  20.1176342  83.2077228  14.0619100  20.8185802  83.8413711  14.2148494
  19.6471457  83.5491959  13.3014739  28.2430738  81.5495177   2.3467007
  28.5190582  81.4351772   3.2560881  27.3735237  81.1512662   2.3079180
  28.1471170  67.5731943   9.3871756  27.2334249  67.8036170   9.5553963
  28.5764271  67.6570387  10.2385788  27.9177628  75.7621835  11.8871650
  27.2649078  76.0097743  11.2324103  28.2958008  74.9485973  11.5534127
  24.8784802  85.7981528   5.9899820  25.0607196  84.9803184   6.4527573
  25.7017788  86.0149221   5.5524710  23.9665201  76.5041646  18.3737687
  23.2905838  76.4035775  19.0440062  24.7892835  76.3480860  18.8373684
  22.7087984  87.8108574  12.6095303  23.2606292  87.9740195  13.3744388
  23.0494177  88.4013011  11.9375328  17.6852477  70.1583723  13.2117188
  17.7493804  71.0198554  12.7994585  17.6219597  69.5457725  12.4789546
  17.1604750  72.2306856  16.8590222  17.7876788  71.8483933  17.4727746
  16.3032669  72.0121058  17.2245914  27.5598858  82.6369831  18.4643957
  28.1038762  83.2499789  17.9698912  26.9785703  83.1949410  18.9810970
  25.8456371  85.7590549   9.5958985  25.7207511  84.9580289   9.0869931
  26.5035462  86.2536743   9.1072955  17.4664539  72.1139282   8.7736125
  16.7451125  72.7275249   8.6343599  18.2557795  72.6497046   8.6952771
  27.9091280  83.5599569  11.2238535  26.9621615  83.4404920  11.1516862
  28.2574053  82.6722067  11.3064797  20.2690853  69.4493708  15.0476777
  20.7925255  69.6956005  15.8103086  20.0503186  70.2813743  14.6279914
  24.9137713  83.3552285   7.4242887  24.7662675  82.4268993   7.6050458
  25.7391206  83.3772376   6.9399963  28.5171835  84.1780844   8.5107760
  29.4418382  83.9723706   8.3732211  28.3487138  83.9297245   9.4197102
  21.4743398  70.3907403  12.7326448  21.1340218  69.5915216  13.1347128
  20.7682404  70.6909114  12.1603281  22.1259870  67.4756716  11.1853771
  22.9485939  67.0017194  11.0632661  22.3697933  68.2547199  11.6852457
  20.7668104  70.5044974   1.4816672  21.4876467  70.8826227   0.9780389
  20.1433408  71.2233851   1.5851650  24.9099227  71.2090123   2.4175005
  25.1262842  72.0914761   2.1163833  24.4293294  70.8176336   1.6880647
  19.6498449  74.1675836   8.9945749  19.5043029  74.4816139   9.8870031
  19.1723652  74.7860737   8.4416648  21.5094831  71.1578384   9.0426639
  21.4956400  70.2619478   8.7058937  22.2267260  71.1649048   9.6764925
  23.3620962  71.5915724  11.0879766  23.1038740  72.5132795  11.0864097
  22.8306003  71.1946159  11.7780230  28.3067151  84.6966512   3.8669852
  28.4804028  84.1312934   3.1143704  28.7996042  85.4967407   3.6849342
  14.1244111  76.7081181  11.9333410  13.5797579  77.4840989  12.0653685
  15.0023461  77.0551985  11.7752532  20.9131727  70.0392765   4.3114209
  21.0347639  69.1109411   4.5105097  20.6233770  70.0531451   3.3992524
  23.7822918  67.7247675   7.4480929  23.8044615  67.7887008   6.4932908
  24.1990977  66.8852184   7.6421435  34.1606542  77.4602935   5.4860151
  34.6037688  76.7110260   5.0879275  33.2833052  77.4513071   5.1033883
  14.9110133  75.8351077  14.8263567  14.1691869  75.9833712  15.4128198
  14.5902877  76.0959343  13.9630317  31.1933747  81.4632982   2.4954081
  31.7185071  81.8020254   1.7703401  31.1056099  80.5279997   2.3117215
  22.8553795  85.3767055  14.6243957  23.1640922  85.1316202  15.4966657
  23.6529277  85.5813694  14.1362828  20.3248279  83.0742974   8.9271636
  19.7028289  82.4113679   8.6273863  20.9953146  83.1004106   8.2445283
  20.3972807  71.5524762  18.5204142  20.4460962  72.4286885  18.1381911
  20.9395321  71.0102155  17.9475785  30.8827653  82.0965885  17.8005279
  30.0923196  82.0790024  17.2609778  30.6461007  82.6354179  18.5554315
  31.0025528  78.9458352  15.1138007  31.0523533  78.7808359  16.0553530
  30.8939451  78.0785611  14.7235888  28.2929290  74.9289280  16.4297314
  29.1939153  74.7895744  16.1381312  28.3677265  75.0943734  17.3695491
  22.6272095  72.3056134  15.2750500  21.7575405  72.5989700  15.0033089
  22.8631576  72.8896579  15.9957764  32.5043724  81.3655293  15.3580029
  32.2128533  81.7285274  16.1943490  31.8915856  80.6522301  15.1793361
  33.7039407  78.9308173   7.8782599  34.5386298  79.3697977   8.0420159
  33.8398536  78.4546826   7.0590845  30.7530913  76.4887908  13.8260087
  31.2285034  76.6815554  13.0178938  29.8296478  76.5447094  13.5803470
  25.3311129  68.5235751  12.7915921  25.8493073  69.2596778  12.4662409
  24.9766262  68.8299745  13.6262680  25.5823723  64.9436034   8.3116817
  25.8625477  64.2759223   8.9377244  26.3674330  65.1365129   7.7991481
  29.4532582  73.3653668  12.0588392  30.4050005  73.4651765  12.0800616
  29.2836032  72.5731936  12.5686477  27.4746961  70.4509251  12.2447793
  26.8796893  70.7314264  11.5494282  27.1896658  70.9403152  13.0164534
  31.9320660  76.5859787  11.1730692  31.8996980  75.6475788  11.3590376
  32.5421283  76.6643824  10.4396517  32.0815148  73.3770831  11.2188975
  31.5654197  72.5929288  11.0318904  32.9655097  73.0489548  11.3835495
  29.7425875  67.1211846   7.1784788  29.5450696  66.8126935   8.0628120
  30.3525580  67.8473485   7.3082718  37.7497209  77.6475794  10.3136729
  38.4800598  77.3861082  10.8744432  37.1404155  76.9104516  10.3538797
  35.8312506  75.7883657  10.9111180  35.1045670  75.6539622  10.3027672
  35.4159793  76.0960486  11.7167898  23.6542683  79.5073587  18.6758553
  24.5745692  79.6852186  18.8698600  23.6192266  78.5629632  18.5238252
  16.6504755  77.4174621  11.3181334  16.8690765  78.3491729  11.3369368
  17.0630529  77.0582596  12.1036138  23.5708973  67.9242707   3.3057023
  22.7609702  67.5789792   3.6812269  24.2593390  67.6150250   3.8944634
  25.4999522  67.0020753   4.9281319  26.0530560  67.4216207   5.5871342
  25.7369608  66.0756501   4.9704275  21.5232621  72.9907827  20.7084083
  21.4229348  73.9402184  20.6396174  21.3054163  72.6626066  19.8360153
  28.8778329  69.1121279   4.4359983  28.2976998  69.7706083   4.0538036
  28.6114261  68.2898623   4.0247401  27.3281895  68.5126336   6.6381304
  27.8281673  68.6242871   5.8295623  27.9717503  68.2087389   7.2782112
  21.3863891  76.4204966  19.5249145  20.9030973  77.2205326  19.7313034
  21.4724830  76.4312911  18.5716589  17.3137228  80.3109501  11.5617579
  18.2680482  80.2793443  11.4947510  17.1149752  79.8500124  12.3767804
  17.9036610  78.8810617  14.1288376  18.7229499  79.3754695  14.1523214
  18.1773418  77.9642585  14.1005944  27.6603207  71.2721369   3.4916332
  26.7729062  71.5571020   3.2736526  28.0757196  71.1115132   2.6443609
  31.0117743  71.2967890   7.2070671  31.7878133  71.7864342   7.4795288
  30.2865877  71.7225944   7.6642540  33.4490301  72.0095509   8.2644612
  34.0434792  71.7691245   7.5537920  33.5216885  71.2902640   8.8918148
  27.6344230  76.7875905   3.7066622  27.5779432  77.2444456   2.8674254
  28.1872573  76.0266589   3.5289465  31.4449036  72.5765637   4.5316741
  31.1885971  72.1762272   5.3624949  30.8201904  73.2909431   4.4066881
  35.7561374  75.3161710   7.0388033  35.1960932  75.3854899   7.8119595
  35.1504878  75.1402695   6.3187529  28.3679010  77.9780686   1.0019151
  28.3127813  77.8124958   0.0607595  27.7425065  78.6856719   1.1581341
  13.1571525  73.2148750  14.8280573  13.8030388  72.7047704  15.3167798
  12.9488676  73.9517432  15.4023999  25.6824917  80.2829598  20.3272714
  26.5516076  80.4570250  19.9659349  25.2031668  81.1024015  20.2048443
  21.6775135  67.4788795   0.5804469  21.6653805  68.4230635   0.7372740
  22.5698557  67.2958941   0.2863931  19.8511097  87.4026699  12.0062147
  20.7538344  87.4350309  12.3228642  19.6248467  86.4727150  12.0208483
  25.4927255  64.0731572   4.8350406  24.7259650  63.5190058   4.9807089
  25.9037960  64.1453440   5.6964558  17.4969016  70.3616368  18.9255588
  18.3600477  70.0053172  19.1358912  16.9234426  70.0230262  19.6130992
  37.3417393  91.9918224   9.7317989  37.9795803  91.8724971   9.0281329
  37.2238235  92.9399068   9.7905941  34.1507099  91.9445652   9.6679513
  33.8125610  91.8286717   8.7800048  35.0196867  91.5436817   9.6480519
  34.6326882  93.0980504  15.6265719  34.6215523  92.7033302  14.7546222
  34.7947521  92.3646576  16.2199490  31.3534143  95.8817616  14.5744903
  31.0624009  96.7863246  14.4591569  31.9891127  95.9234143  15.2888972
  32.2790350  93.2594464  11.1646262  32.8753922  93.0350486  10.4503225
  32.3365321  92.5179210  11.7671710  36.8958661  89.7169678   6.8071197
  37.6821750  89.2989101   6.4561614  37.1597365  90.6215770   6.9752845
  42.2967088  89.6544911   7.7104175  43.0292260  89.0844128   7.9442005
  41.5406444  89.2666511   8.1510681  33.9143208  92.0772152   4.9067518
  33.5501415  91.5502773   5.6180439  34.7710324  91.6870621   4.7334003
  39.8192509  83.3666485  12.1698784  39.4875833  84.2361896  11.9459999
  39.2238122  83.0502769  12.8492814  36.3124028  95.5679031  11.5694696
  36.0124751  96.4704070  11.4610504  35.9675088  95.3011214  12.4215849
  29.7636510  92.0192828   7.6031401  28.8387006  91.8869042   7.8109093
  30.0120923  92.7987047   8.1001343  39.7121172  88.0861571   9.2492134
  38.8038049  88.0176980   8.9550895  39.6608768  88.5633516  10.0773959
  33.7862038  89.5051217  17.1927031  33.0095372  90.0645137  17.1829896
  34.4252601  89.9908000  17.7141901  41.5782818  86.2878010  11.0270008
  40.9357199  86.5810543  10.3809802  41.0737747  86.1730930  11.8323204
  39.2322982  90.0341183   1.7155867  40.1440838  90.2668570   1.5403564
  38.7232629  90.6178227   1.1530946  32.0408410  92.3136670  16.7544998
  32.7823094  92.8521714  16.4779822  31.3345395  92.9402959  16.9116550
  37.5163750  94.4565811  15.3517159  37.9247106  94.0148221  14.6071792
  36.7941011  93.8818438  15.6051352  33.8694820  89.3938417  12.7250716
  34.7156015  89.8177831  12.8685365  33.8093457  88.7372042  13.4189280
  37.8392564  95.0167001   9.1069448  37.2101427  95.1812715   8.4045516
  37.4518226  95.4308611   9.8780412  41.7181796  95.9521439   6.4613812
  41.0332834  96.3320340   5.9110845  41.8025645  96.5616766   7.1945760
  37.0194265  87.0542786  14.3831890  36.7755197  87.8084846  13.8466166
  37.2954195  87.4328133  15.2179137  38.9732728  93.5981398  13.0609156
  39.1849623  94.2413158  12.3843537  38.9262476  92.7643715  12.5931086
  36.5758957  86.2099219   9.9645728  35.7143436  86.5080472  10.2562465
  36.6021391  86.4269618   9.0326760  33.3920526  94.7541409   6.3719533
  33.8558872  95.0329112   5.5824156  33.1277324  93.8524854   6.1892624
  30.2844607  94.3012891   9.3099297  30.8545964  94.7300159   8.6716781
  30.8752719  94.0195476  10.0083482  32.3289412  90.8764562   3.1809099
  33.0313456  91.3285605   3.6483025  31.9970041  90.2348381   3.8088992
  30.7769774  89.4676318  17.5560308  30.1468434  90.1492599  17.7895705
  30.6705862  89.3559400  16.6113446  26.0714746  89.1348114   8.4826232
  25.2813800  89.3905643   8.0066343  26.5625994  89.9496452   8.5878273
  40.0878556  96.4753354  11.2331513  40.9095999  96.0733541  10.9514195
  40.0840959  96.3721588  12.1847629  33.8535159  96.0237397  13.3892224
  33.9179592  96.4857804  14.2250395  33.1446083  95.3934762  13.5174533
  24.3552449  89.3878605  10.9141223  24.6060488  90.2725615  11.1798799
  24.8911998  89.2083206  10.1416315  48.1784549  92.8192102   7.5816484
  47.4248257  92.2499500   7.4260489  48.3132090  92.7854767   8.5287119
  30.0550516  83.7697084  19.9185559  29.6617462  83.2163283  20.5933203
  30.8716657  84.0807663  20.3092077  32.9718477  85.1854963  17.5105816
  33.7128191  85.7862116  17.4310278  33.2036400  84.4432601  16.9523858
  28.1159815  90.3711331  15.7884045  28.0013331  89.4696588  16.0891144
  27.2604333  90.6175027  15.4368862  35.1951653  98.3129071  17.3871546
  34.7515507  97.5265449  17.0692450  35.8568867  98.5008221  16.7215437
  29.9538774  99.8424872  11.9132224  30.5046199  99.7141936  11.1409218
  29.1150250 100.1419761  11.5627117  37.2932891  98.5931871  15.4152947
  37.2751367  99.4140752  14.9233216  38.2152811  98.4685946  15.6403088
  33.7505945  96.1076000  16.2576456  34.2834282  95.3464288  16.0275764
  33.2220027  95.8149652  17.0000610  36.9175640  81.2136066  11.7870097
  36.5739910  82.1037708  11.7109208  37.2854603  81.0237724  10.9239682
  36.8825923  91.2044677   0.2942532  36.3672547  91.9749282   0.5330920
  36.6103232  90.5309813   0.9175594  34.4673034  86.0494378   5.3527771
  33.6114630  85.6601229   5.1733409  34.8799986  86.1286339   4.4927556
  35.9972181  83.5840721   9.7519331  35.4936976  83.5470857   8.9387136
  36.2902788  84.4933464   9.8115987  32.2415067  83.6679451   8.7585512
  33.1068063  83.4722260   8.3991402  32.3092576  83.4389803   9.6854869
  41.8560197  93.9577032   2.2295706  41.0789640  93.6188191   1.7850868
  42.5351678  93.9629655   1.5550671  36.6712226  89.0771769   2.1202314
  36.3662362  89.3917919   2.9712457  37.6242668  89.1553189   2.1629647
  40.0951504  93.4311013   8.8862314  39.4375179  94.1210275   8.9742442
  40.8991903  93.8207445   9.2296300  29.8477386  85.8981659   6.1301879
  30.4221138  85.6756841   5.3975072  30.4348368  85.9670354   6.8830480
  38.9056963  91.7855386   6.9366256  39.4188845  92.4185378   7.4387965
  39.5558187  91.1856581   6.5709616  32.1500053  82.7722908   4.8576949
  31.4964466  82.4571925   4.2333563  32.1080528  82.1498648   5.5836771
  35.3837794  89.2604841   9.1824596  34.4660355  89.4819788   9.0246284
  35.7997937  89.3351152   8.3236303  36.1672842  90.6596257   4.3127276
  36.9144661  91.1717654   4.0034398  36.4364431  90.3380310   5.1731670
  39.6718759  96.7661387   5.0645398  39.2181086  95.9252297   5.1210589
  39.0412726  97.4022786   5.4020178  38.6151679  87.6953373   6.2946066
  37.8774436  87.1830760   6.6256308  38.8678452  87.2553755   5.4829343
  38.1151698  98.6037884   5.9995216  38.4074673  99.1642941   5.2807582
  38.6250319  98.8966445   6.7548375  38.7163306  80.4729625   6.8887835
  39.0222183  79.6126989   6.6013750  39.4415911  81.0647246   6.6886829
  32.9884386  90.7683418   7.3964026  33.0432996  89.8157255   7.3206503
  32.1775588  90.9242858   7.8805324  30.9276746  89.3860478   5.1554405
  30.1144611  89.6854649   5.5619597  31.4235740  88.9916167   5.8728887
  36.5250957  89.8502303  13.9869299  36.8800345  90.0773776  14.8463765
  37.1723089  90.1820679  13.3646554  42.2548694  92.9720739   4.6918628
  42.1166593  93.1622335   3.7639817  41.8984913  93.7340121   5.1486679
  30.4190820  86.9578834  10.7715640  31.0590200  86.8167593  10.0738603
  29.5868351  86.6713347  10.3954242  42.2818074  95.0397266   9.7029899
  42.7154581  94.9472555  10.5512953  42.9949655  95.0154766   9.0649915
  36.0145969  98.6399360  11.2363000  36.0682991  99.2090296  12.0040716
  35.1460750  98.8101245  10.8717037  27.4219437  86.9279159   5.5488627
  27.6826254  87.8424492   5.4397787  28.2436609  86.4603601   5.6985239
  28.8944362  88.3416916  12.7187451  29.5667416  88.1334278  12.0700100
  28.0674149  88.1439002  12.2792683  43.1433623  95.0820966  12.2362785
  43.3369514  95.9866777  12.4822060  43.0434242  94.6228385  13.0701370
  34.7969934  84.9678857  14.7353112  34.1497849  85.6668806  14.6417588
  35.5670950  85.4015001  15.1029360  38.2048732  95.2327709  17.8103665
  38.0534239  95.0038261  16.8933749  38.1953412  96.1898310  17.8235010
  34.9734069  92.8059622  12.7949932  35.9026129  92.9570781  12.6218899
  34.5525099  92.8943643  11.9398578  33.7722400  96.8310286  10.5648469
  33.6333486  96.4629071  11.4374408  32.9836997  97.3457926  10.3932427
  35.3227616  96.2091889   7.9537307  34.9877448  96.1692659   8.8494957
  34.8231561  95.5436605   7.4807717  29.2971859  91.6159519  13.4789888
  29.1591657  90.8839758  14.0801427  30.2076783  91.5268419  13.1974076
  31.9254160  91.3279478  12.9673568  32.6353779  90.6872670  12.9260186
  31.8823468  91.5792373  13.8899749  39.9140939  98.2646832  15.8880147
  39.8553485  97.5806052  15.2210730  40.3160457  99.0065822  15.4360773
  30.6383094  88.3144696  14.7869207  30.1020451  87.8635435  15.4390804
  30.0499803  88.4490605  14.0439672  39.9158346  96.2286415  14.1194127
  39.0285125  95.8912337  14.2420526  40.4856897  95.4969447  14.3562892
  26.3722215  87.4500704  11.8722202  26.2880404  86.8426373  11.1372612
  25.5504922  87.9409722  11.8731698  33.4459499 100.8887868  11.0855370
  33.3729671 101.6942839  11.5974675  33.0036893 101.0879834  10.2603391
  36.5445929  85.9354267   7.2392397  37.0414629  85.1824230   6.9193467
  35.7732911  85.9718584   6.6735606  44.3975687  91.6394633   8.8810689
  44.3865563  92.5219348   8.5104622  43.5293066  91.2866184   8.6865226
  35.9058183 100.7874702  13.2413529  36.6186155 101.4222167  13.1689430
  35.4148212 100.8838568  12.4253531  37.6275710  94.6925955   4.8130820
  36.6931989  94.8127417   4.6435525  37.8052378  93.7898421   4.5490830
  33.1280898  88.0771650   6.9664082  32.7578685  87.5242691   7.6544987
  33.6239990  87.4729784   6.4139082  41.0148261  90.5343274   5.3480855
  41.4808713  91.3671265   5.2741157  41.4655762  90.0688255   6.0526113
  30.9570097  98.5369145  14.0619100  31.6579556  99.1705628  14.2148494
  30.4865212  98.8783877  13.3014739  39.0824492  96.8787095   2.3467007
  39.3584336  96.7643690   3.2560881  38.2128991  96.4804580   2.3079180
  38.9864924  82.9023861   9.3871756  38.0728004  83.1328088   9.5553963
  39.4158025  82.9862305  10.2385788  38.7571382  91.0913753  11.8871650
  38.1042833  91.3389660  11.2324103  39.1351762  90.2777891  11.5534127
  35.7178556 101.1273446   5.9899820  35.9000951 100.3095102   6.4527573
  36.5411542 101.3441138   5.5524710  34.8058956  91.8333564  18.3737687
  34.1299593  91.7327693  19.0440062  35.6286589  91.6772778  18.8373684
  33.5481738 103.1400491  12.6095303  34.1000046 103.3032113  13.3744388
  33.8887932 103.7304929  11.9375328  28.5246232  85.4875641  13.2117188
  28.5887558  86.3490472  12.7994585  28.4613352  84.8749643  12.4789546
  27.9998504  87.5598774  16.8590222  28.6270543  87.1775851  17.4727746
  27.1426423  87.3412976  17.2245914  38.3992613  97.9661749  18.4643957
  38.9432517  98.5791707  17.9698912  37.8179458  98.5241327  18.9810970
  36.6850126 101.0882467   9.5958985  36.5601265 100.2872207   9.0869931
  37.3429217 101.5828660   9.1072955  28.3058294  87.4431199   8.7736125
  27.5844880  88.0567167   8.6343599  29.0951550  87.9788964   8.6952771
  38.7485034  98.8891487  11.2238535  37.8015370  98.7696838  11.1516862
  39.0967807  98.0013985  11.3064797  31.1084607  84.7785626  15.0476777
  31.6319009  85.0247922  15.8103086  30.8896941  85.6105661  14.6279914
  35.7531467  98.6844203   7.4242887  35.6056430  97.7560911   7.6050458
  36.5784961  98.7064294   6.9399963  39.3565589  99.5072762   8.5107760
  40.2812137  99.3015623   8.3732211  39.1880893  99.2589163   9.4197102
  32.3137152  85.7199321  12.7326448  31.9733973  84.9207134  13.1347128
  31.6076159  86.0201032  12.1603281  32.9653624  82.8048633  11.1853771
  33.7879694  82.3309112  11.0632661  33.2091688  83.5839117  11.6852457
  31.6061859  85.8336892   1.4816672  32.3270221  86.2118145   0.9780389
  30.9827163  86.5525769   1.5851650  35.7492982  86.5382041   2.4175005
  35.9656596  87.4206679   2.1163833  35.2687049  86.1468254   1.6880647
  30.4892203  89.4967754   8.9945749  30.3436784  89.8108057   9.8870031
  30.0117407  90.1152654   8.4416648  32.3488586  86.4870302   9.0426639
  32.3350155  85.5911395   8.7058937  33.0661014  86.4940966   9.6764925
  34.2014717  86.9207642  11.0879766  33.9432494  87.8424713  11.0864097
  33.6699757  86.5238077  11.7780230  39.1460905 100.0258429   3.8669852
  39.3197783  99.4604852   3.1143704  39.6389797 100.8259324   3.6849342
  24.9637865  92.0373098  11.9333410  24.4191333  92.8132906  12.0653685
  25.8417215  92.3843903  11.7752532  31.7525482  85.3684682   4.3114209
  31.8741393  84.4401328   4.5105097  31.4627524  85.3823368   3.3992524
  34.6216672  83.0539593   7.4480929  34.6438369  83.1178926   6.4932908
  35.0384731  82.2144101   7.6421435  45.0000297  92.7894852   5.4860151
  45.4431443  92.0402177   5.0879275  44.1226807  92.7804989   5.1033883
  25.7503887  91.1642995  14.8263567  25.0085623  91.3125630  15.4128198
  25.4296631  91.4251260  13.9630317  42.0327501  96.7924899   2.4954081
  42.5578825  97.1312172   1.7703401  41.9449854  95.8571915   2.3117215
  33.6947550 100.7058973  14.6243957  34.0034676 100.4608120  15.4966657
  34.4923032 100.9105611  14.1362828  31.1642034  98.4034892   8.9271636
  30.5422043  97.7405597   8.6273863  31.8346901  98.4296023   8.2445283
  31.2366561  86.8816680  18.5204142  31.2854717  87.7578802  18.1381911
  31.7789076  86.3394073  17.9475785  41.7221407  97.4257803  17.8005279
  40.9316951  97.4081942  17.2609778  41.4854762  97.9646097  18.5554315
  41.8419282  94.2750269  15.1138007  41.8917287  94.1100277  16.0553530
  41.7333205  93.4077528  14.7235888  39.1323045  90.2581197  16.4297314
  40.0332907  90.1187662  16.1381312  39.2071019  90.4235652  17.3695491
  33.4665850  87.6348052  15.2750500  32.5969159  87.9281618  15.0033089
  33.7025330  88.2188497  15.9957764  43.3437479  96.6947211  15.3580029
  43.0522287  97.0577191  16.1943490  42.7309610  95.9814219  15.1793361
  44.5433161  94.2600091   7.8782599  45.3780053  94.6989895   8.0420159
  44.6792290  93.7838744   7.0590845  41.5924667  91.8179825  13.8260087
  42.0678789  92.0107472  13.0178938  40.6690233  91.8739011  13.5803470
  36.1704884  83.8527669  12.7915921  36.6886828  84.5888696  12.4662409
  35.8160016  84.1591662  13.6262680  36.4217478  80.2727951   8.3116817
  36.7019232  79.6051141   8.9377244  37.2068085  80.4657047   7.7991481
  40.2926336  88.6945585  12.0588392  41.2443759  88.7943683  12.0800616
  40.1229787  87.9023854  12.5686477  38.3140716  85.7801169  12.2447793
  37.7190648  86.0606181  11.5494282  38.0290412  86.2695070  13.0164534
  42.7714414  91.9151705  11.1730692  42.7390734  90.9767706  11.3590376
  43.3815038  91.9935742  10.4396517  42.9208902  88.7062749  11.2188975
  42.4047951  87.9221205  11.0318904  43.8048851  88.3781465  11.3835495
  40.5819629  82.4503764   7.1784788  40.3844451  82.1418852   8.0628120
  41.1919335  83.1765403   7.3082718  48.5890964  92.9767712  10.3136729
  49.3194352  92.7153000  10.8744432  47.9797909  92.2396434  10.3538797
  46.6706261  91.1175575  10.9111180  45.9439425  90.9831540  10.3027672
  46.2553548  91.4252403  11.7167898  34.4936437  94.8365504  18.6758553
  35.4139447  95.0144103  18.8698600  34.4586020  93.8921550  18.5238252
  27.4898510  92.7466539  11.3181334  27.7084520  93.6783647  11.3369368
  27.9024284  92.3874513  12.1036138  34.4102728  83.2534624   3.3057023
  33.6003456  82.9081709   3.6812269  35.0987145  82.9442168   3.8944634
  36.3393276  82.3312671   4.9281319  36.8924315  82.7508124   5.5871342
  36.5763362  81.4048419   4.9704275  32.3626375  88.3199745  20.7084083
  32.2623102  89.2694102  20.6396174  32.1447917  87.9917984  19.8360153
  39.7172083  84.4413196   4.4359983  39.1370752  85.0998000   4.0538036
  39.4508016  83.6190541   4.0247401  38.1675649  83.8418254   6.6381304
  38.6675428  83.9534788   5.8295623  38.8111257  83.5379307   7.2782112
  32.2257645  91.7496884  19.5249145  31.7424727  92.5497244  19.7313034
  32.3118584  91.7604828  18.5716589  28.1530983  95.6401418  11.5617579
  29.1074236  95.6085361  11.4947510  27.9543506  95.1792042  12.3767804
  28.7430365  94.2102534  14.1288376  29.5623254  94.7046613  14.1523214
  29.0167173  93.2934502  14.1005944  38.4996961  86.6013287   3.4916332
  37.6122816  86.8862937   3.2736526  38.9150950  86.4407050   2.6443609
  41.8511497  86.6259808   7.2070671  42.6271887  87.1156260   7.4795288
  41.1259631  87.0517862   7.6642540  44.2884056  87.3387427   8.2644612
  44.8828547  87.0983163   7.5537920  44.3610640  86.6194557   8.8918148
  38.4737985  92.1167823   3.7066622  38.4173186  92.5736374   2.8674254
  39.0266327  91.3558507   3.5289465  42.2842791  87.9057554   4.5316741
  42.0279725  87.5054190   5.3624949  41.6595659  88.6201348   4.4066881
  46.5955129  90.6453628   7.0388033  46.0354687  90.7146817   7.8119595
  45.9898632  90.4694612   6.3187529  39.2072764  93.3072604   1.0019151
  39.1521568  93.1416875   0.0607595  38.5818819  94.0148637   1.1581341
  23.9965279  88.5440668  14.8280573  24.6424143  88.0339622  15.3167798
  23.7882430  89.2809350  15.4023999  36.5218671  95.6121516  20.3272714
  37.3909831  95.7862168  19.9659349  36.0425423  96.4315932  20.2048443
  32.5168890  82.8080713   0.5804469  32.5047559  83.7522553   0.7372740
  33.4092312  82.6250858   0.2863931  30.6904852 102.7318617  12.0062147
  31.5932098 102.7642227  12.3228642  30.4642222 101.8019068  12.0208483
  36.3321009  79.4023489   4.8350406  35.5653405  78.8481976   4.9807089
  36.7431714  79.4745358   5.6964558  28.3362770  85.6908285  18.9255588
  29.1994232  85.3345090  19.1358912  27.7628181  85.3522180  19.6130992
  48.1811147 107.3210142   9.7317989  48.8189557 107.2016889   9.0281329
  48.0631990 108.2690986   9.7905941  44.9900853 107.2737570   9.6679513
  44.6519365 107.1578634   8.7800048  45.8590622 106.8728735   9.6480519
  45.4720636 108.4272421  15.6265719  45.4609277 108.0325220  14.7546222
  45.6341276 107.6938494  16.2199490  42.1927898 111.2109533  14.5744903
  41.9017763 112.1155164  14.4591569  42.8284882 111.2526061  15.2888972
  43.1184104 108.5886382  11.1646262  43.7147677 108.3642404  10.4503225
  43.1759076 107.8471127  11.7671710  47.7352416 105.0461595   6.8071197
  48.5215505 104.6281019   6.4561614  47.9991120 105.9507688   6.9752845
  50.6586263  98.6958403  12.1698784  50.3269588  99.5653814  11.9459999
  50.0631876  98.3794687  12.8492814  47.1517783 110.8970949  11.5694696
  46.8518506 111.7995988  11.4610504  46.8068842 110.6303132  12.4215849
  40.6030264 107.3484746   7.6031401  39.6780761 107.2160960   7.8109093
  40.8514677 108.1278965   8.1001343  50.5514926 103.4153489   9.2492134
  49.6431804 103.3468897   8.9550895  50.5002522 103.8925434  10.0773959
  44.6255792 104.8343134  17.1927031  43.8489126 105.3937055  17.1829896
  45.2646355 105.3199917  17.7141901  52.4176573 101.6169927  11.0270008
  51.7750953 101.9102460  10.3809802  51.9131501 101.5022848  11.8323204
  42.8802164 107.6428588  16.7544998  43.6216849 108.1813632  16.4779822
  42.1739150 108.2694877  16.9116550  48.3557504 109.7857728  15.3517159
  48.7640860 109.3440139  14.6071792  47.6334766 109.2110356  15.6051352
  44.7088574 104.7230335  12.7250716  45.5549769 105.1469749  12.8685365
  44.6487212 104.0663959  13.4189280  47.8588019 102.3834703  14.3831890
  47.6148951 103.1376764  13.8466166  48.1347950 102.7620051  15.2179137
  49.8126482 108.9273316  13.0609156  50.0243377 109.5705076  12.3843537
  49.7656231 108.0935632  12.5931086  47.4152711 101.5391136   9.9645728
  46.5537190 101.8372390  10.2562465  47.4415146 101.7561535   9.0326760
  41.1238362 109.6304809   9.3099297  41.6939719 110.0592077   8.6716781
  41.7146474 109.3487393  10.0083482  41.6163528 104.7968236  17.5560308
  40.9862189 105.4784517  17.7895705  41.5099616 104.6851318  16.6113446
  36.9108501 104.4640032   8.4826232  36.1207555 104.7197561   8.0066343
  37.4019748 105.2788370   8.5878273  44.6928914 111.3529315  13.3892224
  44.7573346 111.8149722  14.2250395  43.9839838 110.7226679  13.5174533
  35.1946204 104.7170523  10.9141223  35.4454242 105.6017532  11.1798799
  35.7305752 104.5375124  10.1416315  40.8944271  99.0989002  19.9185559
  40.5011217  98.5455200  20.5933203  41.7110411  99.4099580  20.3092077
  43.8112232 100.5146881  17.5105816  44.5521945 101.1154034  17.4310278
  44.0430155  99.7724519  16.9523858  38.9553570 105.7003248  15.7884045
  38.8407085 104.7988505  16.0891144  38.0998088 105.9466945  15.4368862
  46.0345408 113.6420989  17.3871546  45.5909262 112.8557367  17.0692450
  46.6962621 113.8300139  16.7215437  40.7932529 115.1716790  11.9132224
  41.3439954 115.0433853  11.1409218  39.9544005 115.4711679  11.5627117
  48.1326646 113.9223788  15.4152947  48.1145121 114.7432670  14.9233216
  49.0546566 113.7977864  15.6403088  44.5899700 111.4367918  16.2576456
  45.1228037 110.6756206  16.0275764  44.0613781 111.1441570  17.0000610
  47.7569395  96.5427984  11.7870097  47.4133664  97.4329626  11.7109208
  48.1248357  96.3529642  10.9239682  45.3066789 101.3786296   5.3527771
  44.4508385 100.9893146   5.1733409  45.7193740 101.4578257   4.4927556
  46.8365935  98.9132639   9.7519331  46.3330731  98.8762774   8.9387136
  47.1296542  99.8225382   9.8115987  43.0808821  98.9971369   8.7585512
  43.9461818  98.8014177   8.3991402  43.1486330  98.7681721   9.6854869
  40.6871140 101.2273577   6.1301879  41.2614892 101.0048758   5.3975072
  41.2742123 101.2962271   6.8830480  42.9893808  98.1014826   4.8576949
  42.3358220  97.7863843   4.2333563  42.9474282  97.4790566   5.5836771
  46.2231548 104.5896759   9.1824596  45.3054110 104.8111706   9.0246284
  46.6391692 104.6643070   8.3236303  49.5557061  95.8021543   6.8887835
  49.8615937  94.9418907   6.6013750  50.2809665  96.3939163   6.6886829
  43.8278140 106.0975336   7.3964026  43.8826750 105.1449173   7.3206503
  43.0169342 106.2534775   7.8805324  41.7670500 104.7152396   5.1554405
  40.9538366 105.0146566   5.5619597  42.2629494 104.3208085   5.8728887
  47.3644712 105.1794220  13.9869299  47.7194100 105.4065694  14.8463765
  48.0116843 105.5112597  13.3646554  41.2584575 102.2870751  10.7715640
  41.8983954 102.1459511  10.0738603  40.4262105 102.0005265  10.3954242
  46.8539723 113.9691277  11.2363000  46.9076746 114.5382214  12.0040716
  45.9854505 114.1393162  10.8717037  38.2613191 102.2571076   5.5488627
  38.5220009 103.1716410   5.4397787  39.0830364 101.7895519   5.6985239
  39.7338117 103.6708834  12.7187451  40.4061170 103.4626196  12.0700100
  38.9067903 103.4730920  12.2792683  45.6363689 100.2970775  14.7353112
  44.9891604 100.9960724  14.6417588  46.4064704 100.7306918  15.1029360
  49.0442487 110.5619627  17.8103665  48.8927993 110.3330178  16.8933749
  49.0347166 111.5190228  17.8235010  45.8127823 108.1351539  12.7949932
  46.7419883 108.2862699  12.6218899  45.3918853 108.2235560  11.9398578
  44.6116155 112.1602204  10.5648469  44.4727241 111.7920988  11.4374408
  43.8230751 112.6749843  10.3932427  40.1365614 106.9451437  13.4789888
  39.9985412 106.2131675  14.0801427  41.0470537 106.8560337  13.1974076
  42.7647915 106.6571396  12.9673568  43.4747533 106.0164588  12.9260186
  42.7217223 106.9084291  13.8899749  50.7534693 113.5938749  15.8880147
  50.6947239 112.9097969  15.2210730  51.1554212 114.3357739  15.4360773
  41.4776849 103.6436614  14.7869207  40.9414206 103.1927352  15.4390804
  40.8893557 103.7782523  14.0439672  50.7552101 111.5578333  14.1194127
  49.8678879 111.2204255  14.2420526  51.3250652 110.8261364  14.3562892
  37.2115970 102.7792621  11.8722202  37.1274159 102.1718291  11.1372612
  36.3898676 103.2701640  11.8731698  47.3839684 101.2646185   7.2392397
  47.8808383 100.5116147   6.9193467  46.6126665 101.3010502   6.6735606
  46.7451937 116.1166620  13.2413529  47.4579910 116.7514084  13.1689430
  46.2541966 116.2130486  12.4253531  43.9674652 103.4063568   6.9664082
  43.5972440 102.8534608   7.6544987  44.4633745 102.8021701   6.4139082
  41.7963851 113.8661063  14.0619100  42.4973311 114.4997546  14.2148494
  41.3258966 114.2075795  13.3014739  49.8258678  98.2315778   9.3871756
  48.9121758  98.4620005   9.5553963  50.2551780  98.3154223  10.2385788
  49.5965137 106.4205670  11.8871650  48.9436587 106.6681578  11.2324103
  49.9745517 105.6069809  11.5534127  45.6452710 107.1625482  18.3737687
  44.9693347 107.0619611  19.0440062  46.4680344 107.0064695  18.8373684
  39.3639986 100.8167559  13.2117188  39.4281313 101.6782390  12.7994585
  39.3007106 100.2041560  12.4789546  38.8392259 102.8890691  16.8590222
  39.4664297 102.5067769  17.4727746  37.9820178 102.6704893  17.2245914
  49.2386367 113.2953666  18.4643957  49.7826271 113.9083625  17.9698912
  48.6573212 113.8533245  18.9810970  39.1452048 102.7723117   8.7736125
  38.4238634 103.3859085   8.6343599  39.9345304 103.3080882   8.6952771
  41.9478362 100.1077543  15.0476777  42.4712764 100.3539840  15.8103086
  41.7290695 100.9397578  14.6279914  43.1530907 101.0491239  12.7326448
  42.8127727 100.2499052  13.1347128  42.4469913 101.3492949  12.1603281
  43.8047379  98.1340551  11.1853771  44.6273448  97.6601029  11.0632661
  44.0485442  98.9131035  11.6852457  41.3285958 104.8259672   8.9945749
  41.1830538 105.1399975   9.8870031  40.8511161 105.4444572   8.4416648
  43.1882340 101.8162220   9.0426639  43.1743909 100.9203313   8.7058937
  43.9054769 101.8232883   9.6764925  45.0408471 102.2499560  11.0879766
  44.7826249 103.1716630  11.0864097  44.5093512 101.8529994  11.7780230
  35.8031620 107.3665016  11.9333410  35.2585088 108.1424824  12.0653685
  36.6810970 107.7135821  11.7752532  42.5919236 100.6976600   4.3114209
  42.7135148  99.7693246   4.5105097  42.3021279 100.7115286   3.3992524
  45.4610427  98.3831510   7.4480929  45.4832124  98.4470843   6.4932908
  45.8778486  97.5436019   7.6421435  36.5897642 106.4934912  14.8263567
  35.8479378 106.6417548  15.4128198  36.2690386 106.7543178  13.9630317
  44.5341304 116.0350891  14.6243957  44.8428431 115.7900037  15.4966657
  45.3316786 116.2397529  14.1362828  42.0760316 102.2108597  18.5204142
  42.1248471 103.0870720  18.1381911  42.6182830 101.6685990  17.9475785
  52.5615162 112.7549721  17.8005279  51.7710705 112.7373859  17.2609778
  52.3248516 113.2938014  18.5554315  52.6813037 109.6042187  15.1138007
  52.7311042 109.4392194  16.0553530  52.5726960 108.7369446  14.7235888
  49.9716799 105.5873115  16.4297314  50.8726662 105.4479580  16.1381312
  50.0464774 105.7527570  17.3695491  44.3059604 102.9639970  15.2750500
  43.4362914 103.2573536  15.0033089  44.5419085 103.5480415  15.9957764
  54.1831233 112.0239128  15.3580029  53.8916042 112.3869109  16.1943490
  53.5703365 111.3106137  15.1793361  52.4318422 107.1471743  13.8260087
  52.9072543 107.3399389  13.0178938  51.5083987 107.2030929  13.5803470
  47.0098638  99.1819587  12.7915921  47.5280582  99.9180614  12.4662409
  46.6553771  99.4883580  13.6262680  47.2611232  95.6019869   8.3116817
  47.5412986  94.9343058   8.9377244  48.0461839  95.7948965   7.7991481
  51.1320091 104.0237503  12.0588392  52.0837514 104.1235601  12.0800616
  50.9623541 103.2315772  12.5686477  49.1534470 101.1093086  12.2447793
  48.5584402 101.3898099  11.5494282  48.8684167 101.5986987  13.0164534
  53.6108168 107.2443623  11.1730692  53.5784489 106.3059624  11.3590376
  54.2208792 107.3227660  10.4396517  53.7602657 104.0354666  11.2188975
  53.2441706 103.2513123  11.0318904  54.6442605 103.7073383  11.3835495
  51.4213384  97.7795682   7.1784788  51.2238205  97.4710770   8.0628120
  52.0313089  98.5057321   7.3082718  45.3330192 110.1657422  18.6758553
  46.2533201 110.3436021  18.8698600  45.2979775 109.2213467  18.5238252
  38.3292264 108.0758457  11.3181334  38.5478274 109.0075564  11.3369368
  38.7418038 107.7166431  12.1036138  45.2496482  98.5826542   3.3057023
  44.4397211  98.2373627   3.6812269  45.9380899  98.2734086   3.8944634
  47.1787031  97.6604589   4.9281319  47.7318069  98.0800042   5.5871342
  47.4157117  96.7340337   4.9704275  43.2020130 103.6491662  20.7084083
  43.1016857 104.5986019  20.6396174  42.9841672 103.3209901  19.8360153
  49.0069404  99.1710172   6.6381304  49.5069182  99.2826706   5.8295623
  49.6505012  98.8671224   7.2782112  43.0651400 107.0788801  19.5249145
  42.5818482 107.8789161  19.7313034  43.1512339 107.0896746  18.5716589
  38.9924737 110.9693336  11.5617579  39.9467991 110.9377278  11.4947510
  38.7937261 110.5083960  12.3767804  39.5824119 109.5394452  14.1288376
  40.4017008 110.0338531  14.1523214  39.8560927 108.6226420  14.1005944
  52.6905252 101.9551725   7.2070671  53.4665642 102.4448178   7.4795288
  51.9653386 102.3809779   7.6642540  34.8359034 103.8732586  14.8280573
  35.4817897 103.3631540  15.3167798  34.6276185 104.6101267  15.4023999
  47.3612426 110.9413433  20.3272714  48.2303585 111.1154086  19.9659349
  46.8819177 111.7607850  20.2048443  41.5298606 118.0610534  12.0062147
  42.4325853 118.0934145  12.3228642  41.3035976 117.1310985  12.0208483
  47.1714764  94.7315407   4.8350406  46.4047159  94.1773894   4.9807089
  47.5825469  94.8037276   5.6964558  39.1756525 101.0200203  18.9255588
  40.0387986 100.6637008  19.1358912  38.6021935 100.6814098  19.6130992
  51.7338025 114.4280920  19.9185559  51.3404971 113.8747118  20.5933203
  52.5504166 114.7391498  20.3092077  54.6505986 115.8438799  17.5105816
  55.3915700 116.4445952  17.4310278  54.8823909 115.1016436  16.9523858
  49.6786013 118.2182609  16.8590222  50.3058052 117.8359686  17.4727746
  48.8213932 117.9996811  17.2245914  52.9154070 117.5400515  18.5204142
  52.9642226 118.4162638  18.1381911  53.4576585 116.9977908  17.9475785
  54.0413884 118.9783580  20.7084083  53.9410611 119.9277937  20.6396174
  53.8235426 118.6501819  19.8360153  45.6752788 119.2024503  14.8280573
  46.3211652 118.6923457  15.3167798  45.4669939 119.9393185  15.4023999
  50.0150279 116.3492121  18.9255588  50.8781741 115.9928925  19.1358912
  49.4415690 116.0106015  19.6130992  24.3557900  59.9899276   4.1116853
  23.9121754  59.2035654   3.7937757  25.0175114  60.1778426   3.4460743
  26.4539138  60.2702076   2.1398254  26.4357613  61.0910957   1.6478523
  27.3759058  60.1456151   2.3648395  27.3654979  56.9097914   4.5348972
  27.2140485  56.6808466   3.6179056  27.3559658  57.8668515   4.5480317
  29.0747186  59.9417036   2.6125454  29.0159732  59.2576257   1.9456037
  29.4766704  60.6836026   2.1606080  27.5598859  59.6431954   5.1889264
  28.1038763  60.2561912   4.6944219  26.9785704  60.2011532   5.7056277
  30.8827654  59.1028008   4.5250585  30.0923198  59.0852147   3.9855085
  30.6461008  59.6416301   5.2799622  32.5043726  58.3717416   2.0825335
  32.2128534  58.7347396   2.9188796  31.8915857  57.6584424   1.9038667
  25.6824918  57.2891721   7.0518020  26.5516078  57.4632373   6.6904655
  25.2031670  58.1086137   6.9293750  37.3417394  68.9980346  -3.5436705
  37.9795804  68.8787094  -4.2473365  37.2238237  69.9461190  -3.4848753
  34.1507100  68.9507775  -3.6075180  33.8125612  68.8348839  -4.4954645
  35.0196868  68.5498940  -3.6274174  34.6326883  70.1042626   2.3511025
  34.6215524  69.7095425   1.4791529  34.7947523  69.3708699   2.9444797
  31.3534144  72.8879738   1.2990209  31.0624010  73.7925369   1.1836876
  31.9891129  72.9296266   2.0134279  32.2790351  70.2656587  -2.1108431
  32.8753923  70.0412609  -2.8251468  32.3365323  69.5241332  -1.5082983
  42.2967089  66.6607034  -5.5650518  43.0292261  66.0906250  -5.3312689
  41.5406445  66.2728634  -5.1244013  39.8192510  60.3728608  -1.1055910
  39.4875835  61.2424019  -1.3294695  39.2238123  60.0564892  -0.4261879
  36.3124029  72.5741154  -1.7059997  36.0124752  73.4766192  -1.8144190
  35.9675089  72.3073337  -0.8538844  39.7121173  65.0923694  -4.0262560
  38.8038050  65.0239102  -4.3203799  39.6608769  65.5695639  -3.1980734
  33.7862039  66.5113339   3.9172338  33.0095373  67.0707260   3.9075202
  34.4252602  66.9970122   4.4387208  41.5782820  63.2940132  -2.2484686
  40.9357200  63.5872665  -2.8944891  41.0737748  63.1793053  -1.4431489
  32.0408411  69.3198793   3.4790305  32.7823096  69.8583837   3.2025128
  31.3345397  69.9465082   3.6361856  37.5163751  71.4627933   2.0762466
  37.9247107  71.0210344   1.3317098  36.7941012  70.8880561   2.3296659
  33.8694821  66.4000540  -0.5503977  34.7156016  66.8239954  -0.4069328
  33.8093459  65.7434164   0.1434586  37.8392566  72.0229124  -4.1685245
  37.2101428  72.1874838  -4.8709177  37.4518228  72.4370733  -3.3974281
  41.7181797  72.9583562  -6.8140881  41.0332836  73.3382463  -7.3643848
  41.8025647  73.5678888  -6.0808933  37.0194266  64.0604908   1.1077197
  36.7755198  64.8146969   0.5711472  37.2954197  64.4390256   1.9424444
  38.9732729  70.6043521  -0.2145538  39.1849624  71.2475281  -0.8911157
  38.9262477  69.7705837  -0.6823608  33.3920527  71.7603532  -6.9035160
  33.8558873  72.0391235  -7.6930537  33.1277325  70.8586977  -7.0862069
  30.2844608  71.3075013  -3.9655397  30.8545966  71.7362282  -4.6037912
  30.8752720  71.0257598  -3.2671211  30.7769775  66.4738441   4.2805615
  30.1468436  67.1554722   4.5141011  30.6705863  66.3621523   3.3358753
  40.0878557  73.4815476  -2.0423180  40.9096001  73.0795663  -2.3240499
  40.0840960  73.3783710  -1.0907065  33.8535160  73.0299519   0.1137530
  33.9179593  73.4919927   0.9495702  33.1446084  72.3996884   0.2419840
  48.1784550  69.8254225  -5.6938209  47.4248258  69.2561623  -5.8494204
  48.3132091  69.7916889  -4.7467574  30.0550518  60.7759207   6.6430866
  29.6617463  60.2225405   7.3178510  30.8716658  61.0869785   7.0337383
  32.9718479  62.1917086   4.2351122  33.7128192  62.7924239   4.1555585
  33.2036402  61.4494724   3.6769165  28.1159817  67.3773453   2.5129352
  28.0013332  66.4758710   2.8136451  27.2604334  67.6237150   2.1614168
  35.1951654  75.3191193   4.1116853  34.7515509  74.5327572   3.7937757
  35.8568868  75.5070344   3.4460743  29.9538776  76.8486995  -1.3622469
  30.5046201  76.7204058  -2.1345475  29.1150252  77.1481884  -1.7127576
  37.2932893  75.5993993   2.1398254  37.2751368  76.4202874   1.6478523
  38.2152813  75.4748069   2.3648395  33.7505947  73.1138123   2.9821762
  34.2834283  72.3526411   2.7521070  33.2220028  72.8211775   3.7245917
  40.0951505  70.4373136  -4.3892379  39.4375180  71.1272397  -4.3012251
  40.8991905  70.8269568  -4.0458393  38.9056964  68.7917509  -6.3388438
  39.4188846  69.4247500  -5.8366728  39.5558188  68.1918704  -6.7045078
  35.3837795  66.2666964  -4.0930097  34.4660356  66.4881911  -4.2508409
  35.7997939  66.3413275  -4.9518390  39.6718760  73.7723510  -8.2109295
  39.2181088  72.9314420  -8.1544105  39.0412727  74.4084908  -7.8734515
  38.1151700  75.6100007  -7.2759477  38.4074674  76.1705064  -7.9947111
  38.6250320  75.9028568  -6.5206318  36.5250959  66.8564425   0.7114605
  36.8800346  67.0835898   1.5709071  37.1723090  67.1882802   0.0891861
  42.2548696  69.9782861  -8.5836066  42.1166594  70.1684457  -9.5114876
  41.8984914  70.7402244  -8.1268014  42.2818075  72.0459388  -3.5724794
  42.7154582  71.9534677  -2.7241740  42.9949656  72.0216889  -4.2104778
  36.0145970  75.6461482  -2.0391693  36.0682992  76.2152419  -1.2713978
  35.1460751  75.8163367  -2.4037656  28.8944363  65.3479039  -0.5567242
  29.5667417  65.1396401  -1.2054593  28.0674150  65.1501124  -0.9962010
  43.1433625  72.0883089  -1.0391909  43.3369515  72.9928899  -0.7932634
  43.0434243  71.6290508  -0.2053324  34.7969935  61.9740979   1.4598419
  34.1497851  62.6730929   1.3662895  35.5670951  62.4077123   1.8274667
  38.2048733  72.2389832   4.5348972  38.0534240  72.0100383   3.6179056
  38.1953413  73.1960433   4.5480317  34.9734070  69.8121744  -0.4804762
  35.9026130  69.9632904  -0.6535794  34.5525100  69.9005765  -1.3356115
  33.7722402  73.8372409  -2.7106224  33.6333487  73.4691193  -1.8380286
  32.9836998  74.3520048  -2.8822266  35.3227617  73.2154011  -5.3217386
  34.9877449  73.1754781  -4.4259736  34.8231562  72.5498727  -5.7946976
  29.2971861  68.6221641   0.2035195  29.1591659  67.8901880   0.8046734
  30.2076784  68.5330542  -0.0780617  31.9254161  68.3341601  -0.3081125
  32.6353780  67.6934793  -0.3494507  31.8823470  68.5854496   0.6145055
  39.9140940  75.2708954   2.6125454  39.8553486  74.5868174   1.9456037
  40.3160458  76.0127944   2.1606080  30.6383095  65.3206819   1.5114514
  30.1020452  64.8697557   2.1636110  30.0499804  65.4552728   0.7684978
  39.9158347  73.2348538   0.8439434  39.0285126  72.8974460   0.9665832
  40.4856898  72.5031569   1.0808199  33.4459501  77.8949990  -2.1899323
  33.3729672  78.7004962  -1.6780019  33.0036894  78.0941956  -3.0151302
  44.3975688  68.6456755  -4.3944005  44.3865564  69.5281471  -4.7650072
  43.5293067  68.2928306  -4.5889468  35.9058184  77.7936824  -0.0341165
  36.6186156  78.4284289  -0.1065263  35.4148213  77.8900690  -0.8501163
  37.6275711  71.6988077  -8.4623873  36.6931990  71.8189540  -8.6319169
  37.8052380  70.7960544  -8.7263863  41.0148263  67.5405396  -7.9273839
  41.4808715  68.3733388  -8.0013536  41.4655763  67.0750378  -7.2228580
  30.9570098  75.5431268   0.7864406  31.6579557  76.1767751   0.9393800
  30.4865213  75.8845999   0.0260045  38.7571384  68.0975875  -1.3883043
  38.1042834  68.3451783  -2.0430591  39.1351764  67.2840014  -1.7220566
  35.7178558  78.1335569  -7.2854873  35.9000952  77.3157224  -6.8227121
  36.5411544  78.3503261  -7.7229983  34.8058957  68.8395686   5.0982994
  34.1299594  68.7389816   5.7685369  35.6286591  68.6834900   5.5618991
  33.5481740  80.1462614  -0.6659390  34.1000048  80.3094235   0.0989695
  33.8887933  80.7367052  -1.3379366  27.9998505  64.5660896   3.5835529
  28.6270544  64.1837974   4.1973053  27.1426424  64.3475098   3.9491221
  38.3992614  74.9723871   5.1889264  38.9432518  75.5853830   4.6944219
  37.8179459  75.5303450   5.7056277  36.6850127  78.0944589  -3.6795708
  36.5601266  77.2934329  -4.1884763  37.3429218  78.5890783  -4.1681738
  38.7485035  75.8953609  -2.0516158  37.8015371  75.7758961  -2.1237831
  39.0967808  75.0076108  -1.9689897  31.1084609  61.7847748   1.7722084
  31.6319010  62.0310045   2.5348393  30.8896942  62.6167783   1.3525221
  35.7531469  75.6906326  -5.8511806  35.6056431  74.7623033  -5.6704236
  36.5784962  75.7126416  -6.3354731  39.3565590  76.5134884  -4.7646933
  40.2812138  76.3077746  -4.9022482  39.1880894  76.2651286  -3.8557592
  32.3137154  62.7261444  -0.5428246  31.9733974  61.9269257  -0.1407566
  31.6076160  63.0263154  -1.1151413  34.2014718  63.9269765  -2.1874927
  33.9432496  64.8486835  -2.1890597  33.6699758  63.5300199  -1.4974463
  39.1460907  77.0320552  -9.4084842  39.3197784  76.4666974 -10.1610989
  39.6389798  77.8321447  -9.5905352  24.9637866  69.0435221  -1.3421283
  24.4191335  69.8195029  -1.2101009  25.8417216  69.3906025  -1.5002161
  45.0000298  69.7956975  -7.7894542  45.4431444  69.0464300  -8.1875419
  44.1226808  69.7867111  -8.1720810  25.7503888  68.1705117   1.5508874
  25.0085624  68.3187753   2.1373504  25.4296633  68.4313383   0.6875623
  42.0327502  73.7987022 -10.7800613  42.5578826  74.1374295 -11.5051293
  41.9449855  72.8634037 -10.9637478  33.6947551  77.7121095   1.3489264
  34.0034677  77.4670242   2.2211964  34.4923033  77.9167734   0.8608134
  31.1642035  75.4097014  -4.3483058  30.5422044  74.7467719  -4.6480830
  31.8346902  75.4358146  -5.0309410  31.2366563  63.8878802   5.2449448
  31.2854718  64.7640925   4.8627218  31.7789077  63.3456195   4.6721091
  41.7221408  74.4319925   4.5250585  40.9316952  74.4144064   3.9855085
  41.4854763  74.9708219   5.2799622  41.8419283  71.2812392   1.8383314
  41.8917288  71.1162399   2.7798837  41.7333207  70.4139651   1.4481195
  39.1323046  67.2643320   3.1542621  40.0332909  67.1249785   2.8626618
  39.2071020  67.4297775   4.0940798  33.4665851  64.6410175   1.9995807
  32.5969161  64.9343741   1.7278395  33.7025331  65.2250620   2.7203071
  43.3437480  73.7009333   2.0825335  43.0522289  74.0639314   2.9188796
  42.7309612  72.9876342   1.9038667  44.5433163  71.2662213  -5.3972094
  45.3780054  71.7052017  -5.2334534  44.6792291  70.7900866  -6.2163849
  41.5924668  68.8241948   0.5505393  42.0678790  69.0169594  -0.2575755
  40.6690234  68.8801134   0.3048777  36.1704885  60.8589792  -0.4838773
  36.6886829  61.5950818  -0.8092284  35.8160018  61.1653785   0.3507986
  40.2926337  65.7007708  -1.2166301  41.2443760  65.8005806  -1.1954077
  40.1229788  64.9085977  -0.7068217  38.3140717  62.7863291  -1.0306900
  37.7190649  63.0668304  -1.7260411  38.0290414  63.2757192  -0.2590159
  42.7714415  68.9213828  -2.1024001  42.7390735  67.9829828  -1.9164318
  43.3815039  68.9997864  -2.8358176  42.9208904  65.7124871  -2.0565718
  42.4047952  64.9283328  -2.2435789  43.8048852  65.3843588  -1.8919199
  48.5890965  69.9829835  -2.9617965  49.3194354  69.7215123  -2.4010261
  47.9797911  69.2458557  -2.9215897  46.6706262  68.1237697  -2.3643513
  45.9439426  67.9893662  -2.9727022  46.2553549  68.4314526  -1.5586795
  34.4936439  71.8427627   5.4003860  35.4139448  72.0206226   5.5943906
  34.4586022  70.8983672   5.2483559  27.4898511  69.7528662  -1.9573359
  27.7084521  70.6845769  -1.9385325  27.9024285  69.3936636  -1.1718555
  32.3626377  65.3261867   7.4329390  32.2623103  66.2756224   7.3641481
  32.1447919  64.9980106   6.5605460  32.2257647  68.7559006   6.2494451
  31.7424728  69.5559366   6.4558340  32.3118586  68.7666951   5.2961895
  28.1530984  72.6463541  -1.7137115  29.1074238  72.6147483  -1.7807183
  27.9543508  72.1854165  -0.8986889  28.7430366  71.2164657   0.8533683
  29.5623255  71.7108736   0.8768520  29.0167174  70.2996625   0.8251250
  41.8511499  63.6321930  -6.0684022  42.6271889  64.1218383  -5.7959406
  41.1259633  64.0579984  -5.6112153  44.2884057  64.3449549  -5.0110082
  44.8828548  64.1045285  -5.7216774  44.3610641  63.6256680  -4.3836545
  46.5955130  67.6515750  -6.2366661  46.0354688  67.7208940  -5.4635099
  45.9898633  67.4756735  -6.9567164  23.9965280  65.5502791   1.5525880
  24.6424144  65.0401745   2.0413105  23.7882432  66.2871472   2.1269305
  36.5218673  72.6183638   7.0518020  37.3909832  72.7924291   6.6904655
  36.0425424  73.4378055   6.9293750  30.6904853  79.7380739  -1.2692546
  31.5932100  79.7704350  -0.9526051  30.4642223  78.8081190  -1.2546210
  28.3362771  62.6970408   5.6500894  29.1994233  62.3407213   5.8604219
  27.7628182  62.3584303   6.3376298  48.1811148  84.3272264  -3.5436705
  48.8189558  84.2079012  -4.2473365  48.0631991  85.2753108  -3.4848753
  44.9900855  84.2799692  -3.6075180  44.6519366  84.1640757  -4.4954645
  45.8590623  83.8790857  -3.6274174  45.4720638  85.4334544   2.3511025
  45.4609278  85.0387342   1.4791529  45.6341277  84.7000617   2.9444797
  42.1927899  88.2171656   1.2990209  41.9017765  89.1217287   1.1836876
  42.8284883  88.2588183   2.0134279  43.1184106  85.5948504  -2.1108431
  43.7147678  85.3704527  -2.8251468  43.1759077  84.8533250  -1.5082983
  47.7352417  82.0523718  -6.4683497  48.5215506  81.6343141  -6.8193080
  47.9991121  82.9569810  -6.3001848  50.6586264  75.7020525  -1.1055910
  50.3269589  76.5715936  -1.3294695  50.0631878  75.3856809  -0.4261879
  47.1517784  87.9033071  -1.7059997  46.8518507  88.8058110  -1.8144190
  46.8068843  87.6365255  -0.8538844  40.6030265  84.3546868  -5.6723293
  39.6780762  84.2223082  -5.4645601  40.8514679  85.1341087  -5.1753350
  50.5514928  80.4215612  -4.0262560  49.6431805  80.3531020  -4.3203799
  50.5002523  80.8987556  -3.1980734  44.6255793  81.8405257   3.9172338
  43.8489127  82.3999177   3.9075202  45.2646356  82.3262040   4.4387208
  52.4176574  78.6232050  -2.2484686  51.7750954  78.9164583  -2.8944891
  51.9131503  78.5084970  -1.4431489  42.8802166  84.6490710   3.4790305
  43.6216850  85.1875754   3.2025128  42.1739151  85.2756999   3.6361856
  48.3557505  86.7919851   2.0762466  48.7640861  86.3502261   1.3317098
  47.6334767  86.2172478   2.3296659  44.7088575  81.7292458  -0.5503977
  45.5549771  82.1531871  -0.4069328  44.6487213  81.0726082   0.1434586
  47.8588021  79.3896826   1.1077197  47.6148953  80.1438887   0.5711472
  48.1347951  79.7682174   1.9424444  49.8126484  85.9335438  -0.2145538
  50.0243379  86.5767198  -0.8911157  49.7656232  85.0997755  -0.6823608
  47.4152712  78.5453259  -3.3108966  46.5537192  78.8434513  -3.0192228
  47.4415147  78.7623658  -4.2427933  41.1238363  86.6366931  -3.9655397
  41.6939720  87.0654200  -4.6037912  41.7146475  86.3549516  -3.2671211
  41.6163529  81.8030359   4.2805615  40.9862190  82.4846639   4.5141011
  41.5099617  81.6913440   3.3358753  36.9108502  81.4702155  -4.7928461
  36.1207556  81.7259683  -5.2688351  37.4019749  82.2850493  -4.6876421
  44.6928915  88.3591437   0.1137530  44.7573347  88.8211844   0.9495702
  43.9839839  87.7288802   0.2419840  35.1946205  81.7232645  -2.3613470
  35.4454243  82.6079655  -2.0955894  35.7305753  81.5437247  -3.1338379
  40.8944272  76.1051124   6.6430866  40.5011218  75.5517323   7.3178510
  41.7110413  76.4161703   7.0337383  43.8112233  77.5209004   4.2351122
  44.5521947  78.1216157   4.1555585  44.0430156  76.7786641   3.6769165
  38.9553571  82.7065371   2.5129352  38.8407086  81.8050628   2.8136451
  38.0998089  82.9529068   2.1614168  46.0345409  90.6483111   4.1116853
  45.5909263  89.8619490   3.7937757  46.6962623  90.8362262   3.4460743
  40.7932530  92.1778913  -1.3622469  41.3439955  92.0495976  -2.1345475
  39.9544006  92.4773802  -1.7127576  48.1326647  90.9285911   2.1398254
  48.1145122  91.7494792   1.6478523  49.0546567  90.8039986   2.3648395
  44.5899701  88.4430041   2.9821762  45.1228038  87.6818329   2.7521070
  44.0613782  88.1503692   3.7245917  47.7569396  73.5490106  -1.4884596
  47.4133666  74.4391748  -1.5645485  48.1248359  73.3591764  -2.3515011
  45.3066790  78.3848418  -7.9226923  44.4508386  77.9955269  -8.1021284
  45.7193742  78.4640379  -8.7827137  46.8365937  75.9194762  -3.5235363
  46.3330732  75.8824897  -4.3367558  47.1296543  76.8287504  -3.4638706
  43.0808822  76.0033491  -4.5169181  43.9461819  75.8076300  -4.8763292
  43.1486331  75.7743843  -3.5899824  40.6871141  78.2335699  -7.1452814
  41.2614893  78.0110881  -7.8779621  41.2742124  78.3024394  -6.3924213
  42.9893809  75.1076948  -8.4177745  42.3358222  74.7925965  -9.0421130
  42.9474283  74.4852689  -7.6917922  46.2231550  81.5958882  -4.0930097
  45.3054111  81.8173829  -4.2508409  46.6391693  81.6705192  -4.9518390
  49.5557062  72.8083666  -6.3866858  49.8615939  71.9481029  -6.6740943
  50.2809667  73.4001286  -6.5867864  43.8278142  83.1037459  -5.8790667
  43.8826751  82.1511295  -5.9548191  43.0169344  83.2596898  -5.3949369
  41.7670501  81.7214518  -8.1200288  40.9538367  82.0208689  -7.7135096
  42.2629496  81.3270207  -7.4025806  47.3644713  82.1856343   0.7114605
  47.7194101  82.4127816   1.5709071  48.0116844  82.5174720   0.0891861
  41.2584576  79.2932874  -2.5039054  41.8983956  79.1521633  -3.2016090
  40.4262107  79.0067387  -2.8800452  46.8539725  90.9753400  -2.0391693
  46.9076747  91.5444336  -1.2713978  45.9854506  91.1455285  -2.4037656
  38.2613193  79.2633199  -7.7266067  38.5220010  80.1778532  -7.8356906
  39.0830365  78.7957642  -7.5769454  39.7338118  80.6770956  -0.5567242
  40.4061171  80.4688318  -1.2054593  38.9067904  80.4793042  -0.9962010
  45.6363690  77.3032897   1.4598419  44.9891605  78.0022847   1.3662895
  46.4064705  77.7369041   1.8274667  49.0442488  87.5681749   4.5348972
  48.8927994  87.3392301   3.6179056  49.0347167  88.5252351   4.5480317
  45.8127824  85.1413662  -0.4804762  46.7419884  85.2924822  -0.6535794
  45.3918854  85.2297683  -1.3356115  44.6116156  89.1664326  -2.7106224
  44.4727242  88.7983111  -1.8380286  43.8230752  89.6811966  -2.8822266
  40.1365615  83.9513559   0.2035195  39.9985413  83.2193798   0.8046734
  41.0470539  83.8622459  -0.0780617  42.7647916  83.6633518  -0.3081125
  43.4747534  83.0226711  -0.3494507  42.7217224  83.9146413   0.6145055
  50.7534695  90.6000872   2.6125454  50.6947241  89.9160092   1.9456037
  51.1554213  91.3419862   2.1606080  41.4776850  80.6498736   1.5114514
  40.9414207  80.1989475   2.1636110  40.8893558  80.7844645   0.7684978
  50.7552102  88.5640456   0.8439434  49.8678881  88.2266378   0.9665832
  51.3250653  87.8323487   1.0808199  37.2115971  79.7854744  -1.4032491
  37.1274160  79.1780414  -2.1382081  36.3898677  80.2763762  -1.4022995
  47.3839685  78.2708308  -6.0362296  47.8808384  77.5178270  -6.3561226
  46.6126666  78.3072624  -6.6019087  46.7451939  93.1228742  -0.0341165
  47.4579911  93.7576207  -0.1065263  46.2541967  93.2192608  -0.8501163
  43.9674654  80.4125691  -6.3090612  43.5972441  79.8596731  -5.6209706
  44.4633746  79.8083824  -6.8615612  41.7963852  90.8723186   0.7864406
  42.4973312  91.5059669   0.9393800  41.3258967  91.2137917   0.0260045
  49.8258680  75.2377901  -3.8882937  48.9121760  75.4682128  -3.7200731
  50.2551781  75.3216345  -3.0368905  49.5965138  83.4267793  -1.3883043
  48.9436588  83.6743700  -2.0430591  49.9745518  82.6131931  -1.7220566
  45.6452711  84.1687604   5.0982994  44.9693348  84.0681733   5.7685369
  46.4680345  84.0126818   5.5618991  39.3639987  77.8229681  -0.0637506
  39.4281314  78.6844512  -0.4760108  39.3007108  77.2103683  -0.7965147
  38.8392260  79.8952814   3.5835529  39.4664299  79.5129891   4.1973053
  37.9820179  79.6767016   3.9491221  49.2386368  90.3015789   5.1889264
  49.7826272  90.9145747   4.6944219  48.6573213  90.8595367   5.7056277
  39.1452050  79.7785240  -4.5018568  38.4238635  80.3921207  -4.6411095
  39.9345305  80.3143004  -4.5801922  41.9478363  77.1139666   1.7722084
  42.4712765  77.3601963   2.5348393  41.7290696  77.9459701   1.3525221
  43.1530908  78.0553361  -0.5428246  42.8127729  77.2561174  -0.1407566
  42.4469914  78.3555072  -1.1151413  43.8047380  75.1402674  -2.0900923
  44.6273449  74.6663152  -2.2122032  44.0485444  75.9193157  -1.5902236
  41.3285959  81.8321794  -4.2808944  41.1830540  82.1462097  -3.3884663
  40.8511162  82.4506695  -4.8338045  43.1882342  78.8224342  -4.2328055
  43.1743910  77.9265436  -4.5695757  43.9054770  78.8295006  -3.5989768
  45.0408472  79.2561682  -2.1874927  44.7826250  80.1778753  -2.1890597
  44.5093513  78.8592117  -1.4974463  35.8031621  84.3727139  -1.3421283
  35.2585089  85.1486947  -1.2101009  36.6810971  84.7197943  -1.5002161
  42.5919238  77.7038723  -8.9640484  42.7135149  76.7755369  -8.7649597
  42.3021280  77.7177408  -9.8762169  45.4610428  75.3893633  -5.8273765
  45.4832125  75.4532966  -6.7821785  45.8778487  74.5498142  -5.6333258
  36.5897643  83.4997035   1.5508874  35.8479379  83.6479670   2.1373504
  36.2690387  83.7605301   0.6875623  44.5341305  93.0413013   1.3489264
  44.8428432  92.7962160   2.2211964  45.3316787  93.2459652   0.8608134
  42.0760317  79.2170720   5.2449448  42.1248473  80.0932843   4.8627218
  42.6182831  78.6748113   4.6721091  52.5615163  89.7611843   4.5250585
  51.7710707  89.7435982   3.9855085  52.3248517  90.3000137   5.2799622
  52.6813038  86.6104310   1.8383314  52.7311043  86.4454317   2.7798837
  52.5726961  85.7431569   1.4481195  49.9716800  82.5935238   3.1542621
  50.8726663  82.4541702   2.8626618  50.0464775  82.7589692   4.0940798
  44.3059606  79.9702092   1.9995807  43.4362915  80.2635658   1.7278395
  44.5419086  80.5542537   2.7203071  54.1831235  89.0301251   2.0825335
  53.8916043  89.3931232   2.9188796  53.5703366  88.3168259   1.9038667
  52.4318423  84.1533866   0.5505393  52.9072545  84.3461512  -0.2575755
  51.5083988  84.2093051   0.3048777  47.0098639  76.1881709  -0.4838773
  47.5280583  76.9242736  -0.8092284  46.6553772  76.4945703   0.3507986
  47.2611234  72.6081992  -4.9637876  47.5412987  71.9405181  -4.3377450
  48.0461841  72.8011087  -5.4763212  51.1320092  81.0299626  -1.2166301
  52.0837515  81.1297723  -1.1954077  50.9623542  80.2377894  -0.7068217
  49.1534471  78.1155209  -1.0306900  48.5584404  78.3960222  -1.7260411
  48.8684168  78.6049110  -0.2590159  53.6108170  84.2505745  -2.1024001
  53.5784490  83.3121746  -1.9164318  54.2208793  84.3289782  -2.8358176
  53.7602658  81.0416789  -2.0565718  53.2441707  80.2575246  -2.2435789
  54.6442607  80.7135505  -1.8919199  51.4213385  74.7857804  -6.0969906
  51.2238206  74.4772893  -5.2126574  52.0313091  75.5119443  -5.9671976
  45.3330193  87.1719545   5.4003860  46.2533203  87.3498144   5.5943906
  45.2979776  86.2275590   5.2483559  38.3292266  85.0820579  -1.9573359
  38.5478275  86.0137687  -1.9385325  38.7418040  84.7228554  -1.1718555
  45.2496483  75.5888665  -9.9697671  44.4397212  75.2435749  -9.5942425
  45.9380900  75.2796208  -9.3810059  47.1787032  74.6666711  -8.3473374
  47.7318070  75.0862165  -7.6883351  47.4157118  73.7402459  -8.3050418
  43.2020131  80.6553785   7.4329390  43.1016858  81.6048142   7.3641481
  42.9841673  80.3272024   6.5605460  49.0069405  76.1772294  -6.6373390
  49.5069184  76.2888829  -7.4459071  49.6505013  75.8733347  -5.9972581
  43.0651401  84.0850924   6.2494451  42.5818483  84.8851284   6.4558340
  43.1512340  84.0958869   5.2961895  38.9924739  87.9755458  -1.7137115
  39.9467992  87.9439401  -1.7807183  38.7937262  87.5146082  -0.8986889
  39.5824121  86.5456575   0.8533683  40.4017010  87.0400653   0.8768520
  39.8560928  85.6288543   0.8251250  52.6905253  78.9613848  -6.0684022
  53.4665643  79.4510300  -5.7959406  51.9653387  79.3871902  -5.6112153
  34.8359035  80.8794708   1.5525880  35.4817899  80.3693662   2.0413105
  34.6276186  81.6163390   2.1269305  47.3612427  87.9475556   7.0518020
  48.2303587  88.1216208   6.6904655  46.8819179  88.7669973   6.9293750
  41.5298607  95.0672657  -1.2692546  42.4325854  95.0996267  -0.9526051
  41.3035977  94.1373108  -1.2546210  47.1714765  71.7377530  -8.4404287
  46.4047161  71.1836016  -8.2947605  47.5825470  71.8099398  -7.5790135
  39.1756526  78.0262325   5.6500894  40.0387987  77.6699130   5.8604219
  38.6021937  77.6876220   6.3376298  51.7338027  91.4343042   6.6430866
  51.3404972  90.8809241   7.3178510  52.5504167  91.7453621   7.0337383
  54.6505988  92.8500921   4.2351122  55.3915701  93.4508074   4.1555585
  54.8823911  92.1078559   3.6769165  49.6786014  95.2244732   3.5835529
  50.3058053  94.8421809   4.1973053  48.8213933  95.0058934   3.9491221
  52.9154072  94.5462638   5.2449448  52.9642227  95.4224760   4.8627218
  53.4576586  94.0040031   4.6721091  54.0413885  95.9845703   7.4329390
  53.9410612  96.9340060   7.3641481  53.8235428  95.6563942   6.5605460
  45.6752789  96.2086626   1.5525880  46.3211653  95.6985580   2.0413105
  45.4669941  96.9455308   2.1269305  50.0150280  93.3554243   5.6500894
  50.8781742  92.9991048   5.8604219  49.4415691  93.0168138   6.3376298
  46.0345410  67.6545234  -9.1637841  45.5909264  66.8681612  -9.4816936
  46.6962624  67.8424384  -9.8293950  48.1326648  67.9348034 -11.1356440
  48.1145124  68.7556915 -11.6276170  49.0546568  67.8102109 -10.9106298
  49.0442489  64.5743872  -8.7405721  48.8927996  64.3454424  -9.6575638
  49.0347169  65.5314473  -8.7274376  50.7534696  67.6062994 -10.6629240
  50.6947242  66.9222215 -11.3298656  51.1554214  68.3481984 -11.1148614
  49.2386370  67.3077912  -8.0865429  49.7826274  67.9207870  -8.5810474
  48.6573215  67.8657490  -7.5698416  52.5615164  66.7673966  -8.7504108
  51.7710708  66.7498105  -9.2899609  52.3248519  67.3062259  -7.9955071
  54.1831236  66.0363374 -11.1929358  53.8916044  66.3993354 -10.3565897
  53.5703367  65.3230382 -11.3716026  47.3612428  64.9537678  -6.2236673
  48.2303588  65.1278331  -6.5850038  46.8819180  65.7732095  -6.3460944
  51.7338028  68.4405165  -6.6323828  51.3404974  67.8871363  -5.9576183
  52.5504168  68.7515743  -6.2417310  54.6505989  69.8563044  -9.0403571
  55.3915702  70.4570197  -9.1199109  54.8823912  69.1140682  -9.5985529
  49.6786016  72.2306854  -9.6919165  50.3058054  71.8483931  -9.0781640
  48.8213935  72.0121056  -9.3263472  52.9154073  71.5524760  -8.0305245
  52.9642228  72.4286883  -8.4127476  53.4576587  71.0102153  -8.6033602
  54.0413887  72.9907825  -5.8425304  53.9410614  73.9402182  -5.9113213
  53.8235429  72.6626064  -6.7149234  45.6752791  73.2148749 -11.7228813
  46.3211654  72.7047703 -11.2341588  45.4669942  73.9517430 -11.1485388
  50.0150282  70.3616366  -7.6253799  50.8781743  70.0053171  -7.4150475
  49.4415692  70.0230261  -6.9378395
 122.8608576 122.8608576 122.8608576 109.4712190 109.4712190 109.4712190
